# vtk DataFile Version 3.0
#This file was generated by the deal.II library on 2016/12/20 at 10:56:45
ASCII
DATASET UNSTRUCTURED_GRID

POINTS 7288 double
-1 0.5 0
-0.978723 0.478723 0
-0.970149 0.5 0
-0.964976 0.485465 0
0.12 -0.5 0
0.15 -0.5 0
0.119014 -0.4708 0
0.15 -0.471429 0
0.11755 -0.441479 0
0.119014 -0.4708 0
0.15 -0.442857 0
0.15 -0.471429 0
0.117242 -0.412206 0
0.11755 -0.441479 0
0.15 -0.414286 0
0.15 -0.442857 0
0.118129 -0.383064 0
0.117242 -0.412206 0
0.15 -0.385714 0
0.15 -0.414286 0
0.12021 -0.354337 0
0.118129 -0.383064 0
0.15 -0.357143 0
0.15 -0.385714 0
0.121793 -0.32584 0
0.12021 -0.354337 0
0.15 -0.328571 0
0.15 -0.357143 0
0.122717 -0.296869 0
0.121793 -0.32584 0
0.15 -0.3 0
0.15 -0.328571 0
0.123759 -0.266752 0
0.122717 -0.296869 0
0.153091 -0.267708 0
0.15 -0.3 0
0.18456 -0.26795 0
0.153091 -0.267708 0
0.183333 -0.3 0
0.15 -0.3 0
0.216606 -0.268111 0
0.18456 -0.26795 0
0.216667 -0.3 0
0.183333 -0.3 0
0.24835 -0.26841 0
0.216606 -0.268111 0
0.25 -0.3 0
0.216667 -0.3 0
0.278782 -0.268564 0
0.24835 -0.26841 0
0.279437 -0.298917 0
0.25 -0.3 0
0.279638 -0.328111 0
0.279437 -0.298917 0
0.25 -0.328571 0
0.25 -0.3 0
0.27971 -0.356801 0
0.279638 -0.328111 0
0.25 -0.357143 0
0.25 -0.328571 0
0.279677 -0.385395 0
0.27971 -0.356801 0
0.25 -0.385714 0
0.25 -0.357143 0
0.279641 -0.413938 0
0.279677 -0.385395 0
0.25 -0.414286 0
0.25 -0.385714 0
0.279666 -0.442534 0
0.279641 -0.413938 0
0.25 -0.442857 0
0.25 -0.414286 0
0.279811 -0.471266 0
0.279666 -0.442534 0
0.25 -0.471429 0
0.25 -0.442857 0
0.28 -0.5 0
0.279811 -0.471266 0
0.25 -0.5 0
0.25 -0.471429 0
0.970149 0.5 0
0.970096 0.46978 0
1 0.5 0
1 0.469697 0
0.940299 0.5 0
0.940231 0.46984 0
0.970149 0.5 0
0.970096 0.46978 0
0.910448 0.5 0
0.910371 0.469856 0
0.940299 0.5 0
0.940231 0.46984 0
0.880597 0.5 0
0.880527 0.469909 0
0.910448 0.5 0
0.910371 0.469856 0
0.850746 0.5 0
0.850684 0.469926 0
0.880597 0.5 0
0.880527 0.469909 0
0.820896 0.5 0
0.820842 0.469978 0
0.850746 0.5 0
0.850684 0.469926 0
0.791045 0.5 0
0.791001 0.470016 0
0.820896 0.5 0
0.820842 0.469978 0
0.761194 0.5 0
0.761159 0.470055 0
0.791045 0.5 0
0.791001 0.470016 0
0.731343 0.5 0
0.731316 0.470091 0
0.761194 0.5 0
0.761159 0.470055 0
0.701493 0.5 0
0.701472 0.470118 0
0.731343 0.5 0
0.731316 0.470091 0
0.671642 0.5 0
0.671627 0.470134 0
0.701493 0.5 0
0.701472 0.470118 0
0.641791 0.5 0
0.64178 0.470142 0
0.671642 0.5 0
0.671627 0.470134 0
0.641791 0.5 0
0.61194 0.5 0
0.64178 0.470142 0
0.611934 0.470065 0
0.58209 0.5 0
0.582089 0.470002 0
0.61194 0.5 0
0.611934 0.470065 0
0.552239 0.5 0
0.552248 0.469853 0
0.58209 0.5 0
0.582089 0.470002 0
0.522388 0.5 0
0.522413 0.469718 0
0.552239 0.5 0
0.552248 0.469853 0
0.492537 0.5 0
0.492577 0.469656 0
0.522388 0.5 0
0.522413 0.469718 0
0.462687 0.5 0
0.462743 0.469571 0
0.492537 0.5 0
0.492577 0.469656 0
0.432836 0.5 0
0.432895 0.46963 0
0.462687 0.5 0
0.462743 0.469571 0
0.402985 0.5 0
0.403046 0.469669 0
0.432836 0.5 0
0.432895 0.46963 0
0.373134 0.5 0
0.373191 0.469745 0
0.402985 0.5 0
0.403046 0.469669 0
0.343284 0.5 0
0.343335 0.469723 0
0.373134 0.5 0
0.373191 0.469745 0
0.313433 0.5 0
0.313478 0.469741 0
0.343284 0.5 0
0.343335 0.469723 0
0.283582 0.5 0
0.283622 0.469783 0
0.313433 0.5 0
0.313478 0.469741 0
0.253731 0.5 0
0.253768 0.469742 0
0.283582 0.5 0
0.283622 0.469783 0
0.223881 0.5 0
0.223918 0.469737 0
0.253731 0.5 0
0.253768 0.469742 0
0.19403 0.5 0
0.194064 0.46981 0
0.223881 0.5 0
0.223918 0.469737 0
0.164179 0.5 0
0.16421 0.469881 0
0.19403 0.5 0
0.194064 0.46981 0
0.134328 0.5 0
0.134355 0.46994 0
0.164179 0.5 0
0.16421 0.469881 0
0.104478 0.5 0
0.1045 0.469997 0
0.134328 0.5 0
0.134355 0.46994 0
0.074627 0.5 0
0.074645 0.470051 0
0.104478 0.5 0
0.1045 0.469997 0
0.044776 0.5 0
0.04479 0.470093 0
0.074627 0.5 0
0.074645 0.470051 0
0.014925 0.5 0
0.014935 0.47012 0
0.044776 0.5 0
0.04479 0.470093 0
-0.014925 0.5 0
-0.014918 0.470135 0
0.014925 0.5 0
0.014935 0.47012 0
-0.044776 0.5 0
-0.044771 0.470143 0
-0.014925 0.5 0
-0.014918 0.470135 0
-0.074627 0.5 0
-0.074623 0.470146 0
-0.044776 0.5 0
-0.044771 0.470143 0
-0.104478 0.5 0
-0.104496 0.469979 0
-0.074627 0.5 0
-0.074623 0.470146 0
-0.134328 0.5 0
-0.134359 0.469935 0
-0.104478 0.5 0
-0.104496 0.469979 0
-0.164179 0.5 0
-0.164225 0.469839 0
-0.134328 0.5 0
-0.134359 0.469935 0
-0.164179 0.5 0
-0.19403 0.5 0
-0.164225 0.469839 0
-0.194083 0.469797 0
-0.223881 0.5 0
-0.22394 0.469753 0
-0.19403 0.5 0
-0.194083 0.469797 0
-0.253731 0.5 0
-0.253798 0.469819 0
-0.223881 0.5 0
-0.22394 0.469753 0
-0.283582 0.5 0
-0.283647 0.470019 0
-0.253731 0.5 0
-0.253798 0.469819 0
-0.313433 0.5 0
-0.313491 0.470151 0
-0.283582 0.5 0
-0.283647 0.470019 0
-0.343284 0.5 0
-0.343348 0.470381 0
-0.313433 0.5 0
-0.313491 0.470151 0
-0.343284 0.5 0
-0.373134 0.5 0
-0.343348 0.470381 0
-0.373195 0.470395 0
-0.373134 0.5 0
-0.402985 0.5 0
-0.373195 0.470395 0
-0.403049 0.470404 0
-0.432836 0.5 0
-0.432937 0.470297 0
-0.402985 0.5 0
-0.403049 0.470404 0
-0.462687 0.5 0
-0.462848 0.469995 0
-0.432836 0.5 0
-0.432937 0.470297 0
-0.492537 0.5 0
-0.492807 0.469765 0
-0.462687 0.5 0
-0.462848 0.469995 0
-0.522388 0.5 0
-0.52276 0.46958 0
-0.492537 0.5 0
-0.492807 0.469765 0
-0.552239 0.5 0
-0.55273 0.469652 0
-0.522388 0.5 0
-0.52276 0.46958 0
-0.58209 0.5 0
-0.582662 0.469731 0
-0.552239 0.5 0
-0.55273 0.469652 0
-0.61194 0.5 0
-0.612594 0.469999 0
-0.58209 0.5 0
-0.582662 0.469731 0
-0.641791 0.5 0
-0.642647 0.470419 0
-0.61194 0.5 0
-0.612594 0.469999 0
-0.671642 0.5 0
-0.672638 0.470543 0
-0.641791 0.5 0
-0.642647 0.470419 0
-0.701493 0.5 0
-0.702968 0.4698 0
-0.671642 0.5 0
-0.672638 0.470543 0
-0.820896 0.5 0
-0.822797 0.47207 0
-0.791045 0.5 0
-0.795702 0.469563 0
0.31 -0.5 0
0.309694 -0.471123 0
0.28 -0.5 0
0.279811 -0.471266 0
0.31 -0.5 0
0.34 -0.5 0
0.309694 -0.471123 0
0.339686 -0.471033 0
0.37 -0.5 0
0.369721 -0.471055 0
0.34 -0.5 0
0.339686 -0.471033 0
0.37 -0.5 0
0.4 -0.5 0
0.369721 -0.471055 0
0.399756 -0.470957 0
0.4 -0.5 0
0.43 -0.5 0
0.399756 -0.470957 0
0.429805 -0.470822 0
0.43 -0.5 0
0.46 -0.5 0
0.429805 -0.470822 0
0.459835 -0.470712 0
0.46 -0.5 0
0.49 -0.5 0
0.459835 -0.470712 0
0.489873 -0.470554 0
0.49 -0.5 0
0.52 -0.5 0
0.489873 -0.470554 0
0.519906 -0.470379 0
0.52 -0.5 0
0.55 -0.5 0
0.519906 -0.470379 0
0.54993 -0.470248 0
0.55 -0.5 0
0.58 -0.5 0
0.54993 -0.470248 0
0.579948 -0.470155 0
0.58 -0.5 0
0.61 -0.5 0
0.579948 -0.470155 0
0.609962 -0.470091 0
0.61 -0.5 0
0.64 -0.5 0
0.609962 -0.470091 0
0.639972 -0.47005 0
0.64 -0.5 0
0.67 -0.5 0
0.639972 -0.47005 0
0.66998 -0.470026 0
0.67 -0.5 0
0.7 -0.5 0
0.66998 -0.470026 0
0.699986 -0.470013 0
0.7 -0.5 0
0.73 -0.5 0
0.699986 -0.470013 0
0.72999 -0.470006 0
0.73 -0.5 0
0.76 -0.5 0
0.72999 -0.470006 0
0.759994 -0.470003 0
0.76 -0.5 0
0.79 -0.5 0
0.759994 -0.470003 0
0.78998 -0.469916 0
0.79 -0.5 0
0.82 -0.5 0
0.78998 -0.469916 0
0.819956 -0.469877 0
0.82 -0.5 0
0.85 -0.5 0
0.819956 -0.469877 0
0.849929 -0.469833 0
0.85 -0.5 0
0.88 -0.5 0
0.849929 -0.469833 0
0.879924 -0.469805 0
0.88 -0.5 0
0.91 -0.5 0
0.879924 -0.469805 0
0.909913 -0.469792 0
0.91 -0.5 0
0.94 -0.5 0
0.909913 -0.469792 0
0.939922 -0.469775 0
0.94 -0.5 0
0.97 -0.5 0
0.939922 -0.469775 0
0.969956 -0.46974 0
0.97 -0.5 0
1 -0.5 0
0.969956 -0.46974 0
1 -0.469697 0
-0.702128 0.202128 0
-0.680851 0.180851 0
-0.680976 0.2243 0
-0.659597 0.203254 0
-0.680851 0.180851 0
-0.659574 0.159574 0
-0.659597 0.203254 0
-0.638233 0.18203 0
-0.638298 0.138298 0
-0.616915 0.16063 0
-0.659574 0.159574 0
-0.638233 0.18203 0
-0.617021 0.117021 0
-0.595665 0.139192 0
-0.638298 0.138298 0
-0.616915 0.16063 0
-0.617021 0.117021 0
-0.595745 0.095745 0
-0.595665 0.139192 0
-0.574431 0.117764 0
-0.595745 0.095745 0
-0.574468 0.074468 0
-0.574431 0.117764 0
-0.553204 0.096309 0
-0.553191 0.053191 0
-0.53184 0.075023 0
-0.574468 0.074468 0
-0.553204 0.096309 0
-0.553191 0.053191 0
-0.531915 0.031915 0
-0.53184 0.075023 0
-0.510492 0.053733 0
-0.531915 0.031915 0
-0.510638 0.010638 0
-0.510492 0.053733 0
-0.489127 0.032461 0
-0.510638 0.010638 0
-0.489362 -0.010638 0
-0.489127 0.032461 0
-0.467791 0.011178 0
-0.489362 -0.010638 0
-0.468085 -0.031915 0
-0.467791 0.011178 0
-0.446536 -0.010172 0
-0.446809 -0.053191 0
-0.42524 -0.031466 0
-0.468085 -0.031915 0
-0.446536 -0.010172 0
-0.425532 -0.074468 0
-0.404012 -0.052824 0
-0.446809 -0.053191 0
-0.42524 -0.031466 0
-0.425532 -0.074468 0
-0.404255 -0.095745 0
-0.404012 -0.052824 0
-0.382783 -0.074175 0
-0.404255 -0.095745 0
-0.382979 -0.117021 0
-0.382783 -0.074175 0
-0.361545 -0.095511 0
-0.382979 -0.117021 0
-0.361702 -0.138298 0
-0.361545 -0.095511 0
-0.340288 -0.116831 0
-0.361702 -0.138298 0
-0.340426 -0.159574 0
-0.340288 -0.116831 0
-0.319034 -0.138159 0
-0.340426 -0.159574 0
-0.319149 -0.180851 0
-0.319034 -0.138159 0
-0.297766 -0.159484 0
-0.319149 -0.180851 0
-0.297872 -0.202128 0
-0.297766 -0.159484 0
-0.276489 -0.180797 0
-0.297872 -0.202128 0
-0.276596 -0.223404 0
-0.276489 -0.180797 0
-0.255087 -0.202105 0
-0.255319 -0.244681 0
-0.233674 -0.223466 0
-0.276596 -0.223404 0
-0.255087 -0.202105 0
-0.234043 -0.265957 0
-0.212119 -0.244916 0
-0.255319 -0.244681 0
-0.233674 -0.223466 0
-0.234043 -0.265957 0
-0.212766 -0.287234 0
-0.212119 -0.244916 0
-0.190657 -0.266392 0
-0.191489 -0.308511 0
-0.169261 -0.287934 0
-0.212766 -0.287234 0
-0.190657 -0.266392 0
-0.170213 -0.329787 0
-0.147854 -0.309624 0
-0.191489 -0.308511 0
-0.169261 -0.287934 0
-0.170213 -0.329787 0
-0.148936 -0.351064 0
-0.147854 -0.309624 0
-0.126431 -0.331364 0
-0.12766 -0.37234 0
-0.105256 -0.353368 0
-0.148936 -0.351064 0
-0.126431 -0.331364 0
-0.12766 -0.37234 0
-0.106383 -0.393617 0
-0.105256 -0.353368 0
-0.083924 -0.375263 0
-0.106383 -0.393617 0
-0.085106 -0.414894 0
-0.083924 -0.375263 0
-0.062097 -0.396824 0
-0.085106 -0.414894 0
-0.06383 -0.43617 0
-0.062097 -0.396824 0
-0.040132 -0.418076 0
-0.06383 -0.43617 0
-0.042553 -0.457447 0
-0.040132 -0.418076 0
-0.019646 -0.439891 0
-0.042553 -0.457447 0
-0.021277 -0.478723 0
-0.019646 -0.439891 0
[...]
POINT_DATA 7288
VECTORS momentum double
0.0014355 -0.00102687 0
0.00611372 -0.00615439 0
0.0153125 -0.00135851 0
0.0174204 -0.000151555 0
-9.36602e-05 -0.000400242 0
6.79536e-05 -0.000402346 0
-2.60066e-05 -0.000910478 0
6.18866e-05 -0.000876357 0
-0.000196265 -0.000548195 0
-2.60066e-05 -0.000910478 0
7.31525e-05 -0.000589473 0
6.18866e-05 -0.000876357 0
-2.88645e-05 -0.000957527 0
-0.000196265 -0.000548195 0
-2.53495e-07 -0.00106188 0
7.31525e-05 -0.000589473 0
4.28259e-05 -0.000618118 0
-2.88645e-05 -0.000957527 0
-1.41556e-05 -0.00070303 0
-2.53495e-07 -0.00106188 0
3.41396e-05 -0.000894539 0
4.28259e-05 -0.000618118 0
-3.72593e-05 -0.000916742 0
-1.41556e-05 -0.00070303 0
0.000113162 -0.000608844 0
3.41396e-05 -0.000894539 0
-8.68379e-06 -0.00058739 0
-3.72593e-05 -0.000916742 0
4.36648e-05 -0.00107747 0
0.000113162 -0.000608844 0
-2.02418e-05 -0.000573619 0
-8.68379e-06 -0.00058739 0
-0.000378259 -0.000604083 0
4.36648e-05 -0.00107747 0
-0.000604384 -0.00085561 0
-2.02418e-05 -0.000573619 0
-0.000269436 -0.00120593 0
-0.000604384 -0.00085561 0
2.06663e-05 -0.000436313 0
-2.02418e-05 -0.000573619 0
-0.00011868 -0.00123866 0
-0.000269436 -0.00120593 0
-0.000481996 -0.000489161 0
2.06663e-05 -0.000436313 0
8.09368e-05 -0.000746365 0
-0.00011868 -0.00123866 0
-0.000226431 -0.000452537 0
-0.000481996 -0.000489161 0
1.65676e-05 -0.000462736 0
8.09368e-05 -0.000746365 0
-0.000225283 -0.000811025 0
-0.000226431 -0.000452537 0
-3.39433e-05 -0.000404926 0
-0.000225283 -0.000811025 0
2.20766e-05 -0.000287464 0
-0.000226431 -0.000452537 0
-3.21125e-05 -0.000734795 0
-3.39433e-05 -0.000404926 0
-1.84718e-05 -0.000755669 0
2.20766e-05 -0.000287464 0
1.15393e-05 -0.000401653 0
-3.21125e-05 -0.000734795 0
3.36561e-06 -0.000377114 0
-1.84718e-05 -0.000755669 0
-2.32128e-05 -0.000778114 0
1.15393e-05 -0.000401653 0
-4.40008e-06 -0.000788409 0
3.36561e-06 -0.000377114 0
4.21548e-06 -0.000394046 0
-2.32128e-05 -0.000778114 0
1.38166e-06 -0.000384519 0
-4.40008e-06 -0.000788409 0
-2.14152e-05 -0.00083678 0
4.21548e-06 -0.000394046 0
-2.66857e-06 -0.000840433 0
1.38166e-06 -0.000384519 0
8.07459e-06 -0.000378386 0
-2.14152e-05 -0.00083678 0
1.96957e-06 -0.000372976 0
-2.66857e-06 -0.000840433 0
-2.82406e-05 -0.000661448 0
-1.77465e-05 -0.00172248 0
-2.94869e-05 -0.000661692 0
-1.60332e-05 -0.0017243 0
-2.39579e-05 -0.000661862 0
-1.66539e-05 -0.00172079 0
-2.82406e-05 -0.000661448 0
-1.77465e-05 -0.00172248 0
-2.0491e-05 -0.000661354 0
-1.24041e-05 -0.00171864 0
-2.39579e-05 -0.000661862 0
-1.66539e-05 -0.00172079 0
-1.6608e-05 -0.000660335 0
-8.54088e-06 -0.00171615 0
-2.0491e-05 -0.000661354 0
-1.24041e-05 -0.00171864 0
-1.22868e-05 -0.000659549 0
-2.91288e-06 -0.00171384 0
-1.6608e-05 -0.000660335 0
-8.54088e-06 -0.00171615 0
-6.80997e-06 -0.000657995 0
3.30045e-06 -0.00171132 0
-1.22868e-05 -0.000659549 0
-2.91288e-06 -0.00171384 0
8.87992e-07 -0.000657136 0
1.0829e-05 -0.00170875 0
-6.80997e-06 -0.000657995 0
3.30045e-06 -0.00171132 0
9.34436e-06 -0.000655447 0
1.98662e-05 -0.00170685 0
8.87992e-07 -0.000657136 0
1.0829e-05 -0.00170875 0
2.05315e-05 -0.000654091 0
2.86602e-05 -0.00170521 0
9.34436e-06 -0.000655447 0
1.98662e-05 -0.00170685 0
3.24288e-05 -0.000653226 0
3.92577e-05 -0.00170456 0
2.05315e-05 -0.000654091 0
2.86602e-05 -0.00170521 0
4.69228e-05 -0.000651938 0
4.97313e-05 -0.00170416 0
3.24288e-05 -0.000653226 0
3.92577e-05 -0.00170456 0
6.28371e-05 -0.000651152 0
5.65642e-05 -0.0017057 0
4.69228e-05 -0.000651938 0
4.97313e-05 -0.00170416 0
6.28371e-05 -0.000651152 0
7.53936e-05 -0.000651756 0
5.65642e-05 -0.0017057 0
6.36824e-05 -0.00170829 0
8.71941e-05 -0.000652067 0
6.75791e-05 -0.00171339 0
7.53936e-05 -0.000651756 0
6.36824e-05 -0.00170829 0
9.3889e-05 -0.000654757 0
6.9667e-05 -0.00171788 0
8.71941e-05 -0.000652067 0
6.75791e-05 -0.00171339 0
9.24547e-05 -0.000657464 0
7.51793e-05 -0.00172059 0
9.3889e-05 -0.000654757 0
6.9667e-05 -0.00171788 0
9.17172e-05 -0.000658707 0
7.82914e-05 -0.00172105 0
9.24547e-05 -0.000657464 0
7.51793e-05 -0.00172059 0
8.23941e-05 -0.000660848 0
7.7317e-05 -0.00172052 0
9.17172e-05 -0.000658707 0
7.82914e-05 -0.00172105 0
6.5799e-05 -0.000661548 0
7.19273e-05 -0.00171923 0
8.23941e-05 -0.000660848 0
7.7317e-05 -0.00172052 0
4.9887e-05 -0.000660693 0
6.14627e-05 -0.00171658 0
6.5799e-05 -0.000661548 0
7.19273e-05 -0.00171923 0
3.70178e-05 -0.000658953 0
4.52266e-05 -0.00171557 0
4.9887e-05 -0.000660693 0
6.14627e-05 -0.00171658 0
2.56133e-05 -0.000659087 0
2.84835e-05 -0.00171323 0
3.70178e-05 -0.000658953 0
4.52266e-05 -0.00171557 0
1.13565e-05 -0.000658927 0
1.51342e-05 -0.00171504 0
2.56133e-05 -0.000659087 0
2.84835e-05 -0.00171323 0
6.82491e-07 -0.000659079 0
-5.89284e-07 -0.00171468 0
1.13565e-05 -0.000658927 0
1.51342e-05 -0.00171504 0
-5.36021e-06 -0.000660427 0
-1.3081e-05 -0.00171166 0
6.82491e-07 -0.000659079 0
-5.89284e-07 -0.00171468 0
-1.89039e-05 -0.000663961 0
-2.52082e-05 -0.00170699 0
-5.36021e-06 -0.000660427 0
-1.3081e-05 -0.00171166 0
-3.29507e-05 -0.000668172 0
-2.8679e-05 -0.0017009 0
-1.89039e-05 -0.000663961 0
-2.52082e-05 -0.00170699 0
-4.41854e-05 -0.000667467 0
-3.06078e-05 -0.00169941 0
-3.29507e-05 -0.000668172 0
-2.8679e-05 -0.0017009 0
-4.48662e-05 -0.000665121 0
-2.81788e-05 -0.00169962 0
-4.41854e-05 -0.000667467 0
-3.06078e-05 -0.00169941 0
-4.68198e-05 -0.000661474 0
-2.81516e-05 -0.0017028 0
-4.48662e-05 -0.000665121 0
-2.81788e-05 -0.00169962 0
-3.71017e-05 -0.000656885 0
-1.88094e-05 -0.00170671 0
-4.68198e-05 -0.000661474 0
-2.81516e-05 -0.0017028 0
-3.26672e-05 -0.000652321 0
-2.02138e-05 -0.00171216 0
-3.71017e-05 -0.000656885 0
-1.88094e-05 -0.00170671 0
-1.27089e-05 -0.000650818 0
-8.29536e-06 -0.00171326 0
-3.26672e-05 -0.000652321 0
-2.02138e-05 -0.00171216 0
-1.10067e-05 -0.000650557 0
-9.10911e-06 -0.00171765 0
-1.27089e-05 -0.000650818 0
-8.29536e-06 -0.00171326 0
1.6378e-05 -0.00065027 0
1.14333e-05 -0.0017174 0
-1.10067e-05 -0.000650557 0
-9.10911e-06 -0.00171765 0
1.16068e-05 -0.000651389 0
-6.2199e-06 -0.00172033 0
1.6378e-05 -0.00065027 0
1.14333e-05 -0.0017174 0
2.92312e-05 -0.0006541 0
5.85952e-06 -0.00171555 0
1.16068e-05 -0.000651389 0
-6.2199e-06 -0.00172033 0
-2.28586e-05 -0.00065806 0
-4.42371e-05 -0.00171334 0
2.92312e-05 -0.0006541 0
5.85952e-06 -0.00171555 0
-2.62585e-05 -0.000662606 0
-4.94597e-05 -0.00169804 0
-2.28586e-05 -0.00065806 0
-4.42371e-05 -0.00171334 0
-2.62585e-05 -0.000662606 0
-0.000158686 -0.000667822 0
-4.94597e-05 -0.00169804 0
-0.000165021 -0.0016888 0
-0.000220962 -0.000666023 0
-0.000205622 -0.00166156 0
-0.000158686 -0.000667822 0
-0.000165021 -0.0016888 0
-0.000517037 -0.000661888 0
-0.00046705 -0.00163842 0
-0.000220962 -0.000666023 0
-0.000205622 -0.00166156 0
-0.000724871 -0.000651472 0
-0.000659284 -0.00154043 0
-0.000517037 -0.000661888 0
-0.00046705 -0.00163842 0
-0.0014155 -0.000639816 0
-0.00131806 -0.00144083 0
-0.000724871 -0.000651472 0
-0.000659284 -0.00154043 0
-0.00205705 -0.000620356 0
-0.00194781 -0.00117457 0
-0.0014155 -0.000639816 0
-0.00131806 -0.00144083 0
-0.00205705 -0.000620356 0
-0.00368371 -0.000594577 0
-0.00194781 -0.00117457 0
-0.00352946 -0.000869428 0
-0.00368371 -0.000594577 0
-0.00539306 -0.000565347 0
-0.00352946 -0.000869428 0
-0.00523184 -0.00017134 0
-0.00904462 -0.000529241 0
-0.00878123 0.000640127 0
-0.00539306 -0.000565347 0
-0.00523184 -0.00017134 0
-0.0130763 -0.000483233 0
-0.0127428 0.00228219 0
-0.00904462 -0.000529241 0
-0.00878123 0.000640127 0
-0.0207624 -0.00039877 0
-0.0201722 0.00415822 0
-0.0130763 -0.000483233 0
-0.0127428 0.00228219 0
-0.0293813 -0.000305808 0
-0.0286342 0.00759136 0
-0.0207624 -0.00039877 0
-0.0201722 0.00415822 0
-0.0447275 -0.000132714 0
-0.0436108 0.0114163 0
-0.0293813 -0.000305808 0
-0.0286342 0.00759136 0
-0.0624532 -2.50019e-05 0
-0.0609529 0.0185429 0
-0.0447275 -0.000132714 0
-0.0436108 0.0114163 0
-0.0930551 0.000369142 0
-0.0907221 0.0258229 0
-0.0624532 -2.50019e-05 0
-0.0609529 0.0185429 0
-0.128704 0.000701164 0
-0.126849 0.0405946 0
-0.0930551 0.000369142 0
-0.0907221 0.0258229 0
-0.187171 0.000989192 0
-0.181414 0.0431189 0
-0.128704 0.000701164 0
-0.126849 0.0405946 0
-0.212526 -2.03204e-05 0
-0.238315 0.00906404 0
-0.187171 0.000989192 0
-0.181414 0.0431189 0
-0.00624003 -0.00319369 0
0.00722108 -0.0386963 0
-0.0516841 -0.00220363 0
-0.037066 -0.0686523 0
-2.4604e-06 -0.000388302 0
-3.13397e-05 -0.000834273 0
8.07459e-06 -0.000378386 0
-2.14152e-05 -0.00083678 0
-2.4604e-06 -0.000388302 0
-2.01514e-05 -0.000396003 0
-3.13397e-05 -0.000834273 0
-3.47946e-05 -0.00083201 0
-3.40962e-05 -0.000399226 0
-4.40959e-05 -0.000830519 0
-2.01514e-05 -0.000396003 0
-3.47946e-05 -0.00083201 0
-3.40962e-05 -0.000399226 0
-4.04594e-05 -0.000403097 0
-4.40959e-05 -0.000830519 0
-5.3324e-05 -0.000828088 0
-4.04594e-05 -0.000403097 0
-4.69521e-05 -0.000405449 0
-5.3324e-05 -0.000828088 0
-5.92484e-05 -0.000828309 0
-4.69521e-05 -0.000405449 0
-5.21339e-05 -0.000407743 0
-5.92484e-05 -0.000828309 0
-6.2163e-05 -0.000829757 0
-5.21339e-05 -0.000407743 0
-5.36071e-05 -0.000407884 0
-6.2163e-05 -0.000829757 0
-6.56916e-05 -0.00083333 0
-5.36071e-05 -0.000407884 0
-5.30724e-05 -0.000410409 0
-6.56916e-05 -0.00083333 0
-6.80519e-05 -0.000836509 0
-5.30724e-05 -0.000410409 0
-5.28467e-05 -0.000412447 0
-6.80519e-05 -0.000836509 0
-6.49142e-05 -0.000839672 0
-5.28467e-05 -0.000412447 0
-5.09466e-05 -0.000414522 0
-6.49142e-05 -0.000839672 0
-5.98578e-05 -0.000842845 0
-5.09466e-05 -0.000414522 0
-4.67769e-05 -0.000415559 0
-5.98578e-05 -0.000842845 0
-5.2896e-05 -0.000845424 0
-4.67769e-05 -0.000415559 0
-4.17016e-05 -0.000416762 0
-5.2896e-05 -0.000845424 0
-4.57189e-05 -0.000847588 0
-4.17016e-05 -0.000416762 0
-3.57313e-05 -0.00041706 0
-4.57189e-05 -0.000847588 0
-3.74884e-05 -0.000849255 0
-3.57313e-05 -0.00041706 0
-3.01904e-05 -0.000417433 0
-3.74884e-05 -0.000849255 0
-3.09303e-05 -0.000850796 0
-3.01904e-05 -0.000417433 0
-2.40038e-05 -0.000417527 0
-3.09303e-05 -0.000850796 0
-2.4887e-05 -0.000852496 0
-2.40038e-05 -0.000417527 0
-1.72572e-05 -0.000417762 0
-2.4887e-05 -0.000852496 0
-2.15582e-05 -0.000854806 0
-1.72572e-05 -0.000417762 0
-1.26337e-05 -0.000418457 0
-2.15582e-05 -0.000854806 0
-1.86909e-05 -0.000856516 0
-1.26337e-05 -0.000418457 0
-1.03369e-05 -0.000419358 0
-1.86909e-05 -0.000856516 0
-1.57892e-05 -0.0008588 0
-1.03369e-05 -0.000419358 0
-8.68989e-06 -0.000420289 0
-1.57892e-05 -0.0008588 0
-1.32836e-05 -0.000861046 0
-8.68989e-06 -0.000420289 0
-9.3562e-06 -0.000421044 0
-1.32836e-05 -0.000861046 0
-1.23652e-05 -0.000863152 0
-9.3562e-06 -0.000421044 0
-9.3676e-06 -0.000421336 0
-1.23652e-05 -0.000863152 0
-1.17974e-05 -0.000865285 0
-9.3676e-06 -0.000421336 0
-9.73535e-06 -0.000421811 0
-1.17974e-05 -0.000865285 0
-1.2016e-05 -0.000866784 0
-9.73535e-06 -0.000421811 0
-9.23634e-06 -0.000421859 0
-1.2016e-05 -0.000866784 0
-1.14936e-05 -0.000867945 0
-9.23634e-06 -0.000421859 0
-9.21022e-06 -0.000421849 0
-1.14936e-05 -0.000867945 0
-1.20718e-05 -0.000868609 0
0.205899 -0.200826 0
0.134084 -0.129391 0
0.237559 -0.0967762 0
0.157333 -0.0763499 0
0.134084 -0.129391 0
0.0910856 -0.0900972 0
0.157333 -0.0763499 0
0.106809 -0.0612143 0
0.0662808 -0.065797 0
0.0756808 -0.0491412 0
0.0910856 -0.0900972 0
0.106809 -0.0612143 0
0.0490793 -0.0490938 0
0.0547568 -0.0388499 0
0.0662808 -0.065797 0
0.0756808 -0.0491412 0
0.0490793 -0.0490938 0
0.036927 -0.037074 0
0.0547568 -0.0388499 0
0.0403474 -0.0306486 0
0.036927 -0.037074 0
0.0276283 -0.0279435 0
0.0403474 -0.0306486 0
0.0295374 -0.0237846 0
0.0205157 -0.0208825 0
0.021565 -0.0181789 0
0.0276283 -0.0279435 0
0.0295374 -0.0237846 0
0.0205157 -0.0208825 0
0.0149963 -0.0154406 0
0.021565 -0.0181789 0
0.015431 -0.0136702 0
0.0149963 -0.0154406 0
0.0107646 -0.0112249 0
0.015431 -0.0136702 0
0.0108601 -0.0101087 0
0.0107646 -0.0112249 0
0.00760142 -0.00808819 0
0.0108601 -0.0101087 0
0.00743326 -0.00739227 0
0.00760142 -0.00808819 0
0.00525668 -0.00574517 0
0.00743326 -0.00739227 0
0.00495427 -0.00534231 0
0.00359282 -0.00408673 0
0.00318239 -0.00386269 0
0.00525668 -0.00574517 0
0.00495427 -0.00534231 0
0.00241073 -0.00290639 0
0.00195683 -0.00279783 0
0.00359282 -0.00408673 0
0.00318239 -0.00386269 0
0.00241073 -0.00290639 0
0.00161232 -0.00210893 0
0.00195683 -0.00279783 0
0.00112556 -0.00207354 0
0.00161232 -0.00210893 0
0.00107567 -0.00157065 0
0.00112556 -0.00207354 0
0.000582842 -0.00157649 0
0.00107567 -0.00157065 0
0.000730646 -0.00122237 0
0.000582842 -0.00157649 0
0.000232191 -0.00125773 0
0.000730646 -0.00122237 0
0.000519298 -0.00100568 0
0.000232191 -0.00125773 0
2.18973e-05 -0.00105361 0
0.000519298 -0.00100568 0
0.000389591 -0.000871398 0
2.18973e-05 -0.00105361 0
-0.000105435 -0.000931378 0
0.000389591 -0.000871398 0
0.000332955 -0.000807961 0
-0.000105435 -0.000931378 0
-0.00016006 -0.000865221 0
0.000332955 -0.000807961 0
0.00029493 -0.000767759 0
-0.00016006 -0.000865221 0
-0.000193221 -0.000835286 0
0.000303301 -0.000762386 0
-0.000180722 -0.000841659 0
0.00029493 -0.000767759 0
-0.000193221 -0.000835286 0
0.000302136 -0.00075156 0
-0.000202214 -0.000840046 0
0.000303301 -0.000762386 0
-0.000180722 -0.000841659 0
0.000302136 -0.00075156 0
0.000332433 -0.000782563 0
-0.000202214 -0.000840046 0
-0.0001736 -0.000851236 0
0.000321188 -0.000784417 0
-0.000182937 -0.000834627 0
0.000332433 -0.000782563 0
-0.0001736 -0.000851236 0
0.00034439 -0.000835671 0
-0.000102638 -0.000851886 0
0.000321188 -0.000784417 0
-0.000182937 -0.000834627 0
0.00034439 -0.000835671 0
0.000305324 -0.000796974 0
-0.000102638 -0.000851886 0
-0.000111067 -0.000863718 0
0.000372496 -0.000848813 0
-5.59904e-05 -0.000924589 0
0.000305324 -0.000796974 0
-0.000111067 -0.000863718 0
0.000372496 -0.000848813 0
0.000364753 -0.00084109 0
-5.59904e-05 -0.000924589 0
-0.000109472 -0.000908567 0
0.000364753 -0.00084109 0
0.000448799 -0.000943571 0
-0.000109472 -0.000908567 0
2.19699e-05 -0.000998521 0
0.000448799 -0.000943571 0
0.000367738 -0.000864869 0
2.19699e-05 -0.000998521 0
-1.46166e-05 -0.000885216 0
0.000367738 -0.000864869 0
0.000277155 -0.000746241 0
-1.46166e-05 -0.000885216 0
0.000254171 -0.00110812 0
0.000277155 -0.000746241 0
0.000215469 -0.000528163 0
0.000254171 -0.00110812 0
7.16495e-05 -0.00055667 0
0.000215469 -0.000528163 0
0.000119708 -0.000449882 0
7.16495e-05 -0.00055667 0
3.14632e-06 -0.000903258 0
0.000119708 -0.000449882 0
0.00029768 -0.00028394 0
3.14632e-06 -0.000903258 0
0.000182764 -0.000748919 0
0.00029768 -0.00028394 0
0.000233716 -0.000369328 0
0.000182764 -0.000748919 0
-0.000183593 -0.000848288 0
0.000233716 -0.000369328 0
0.000152147 -0.000446122 0
-0.000183593 -0.000848288 0
9.08978e-05 -0.000791868 0
0.000152147 -0.000446122 0
-9.36602e-05 -0.000400242 0
9.08978e-05 -0.000791868 0
-2.60066e-05 -0.000910478 0
-1.14936e-05 -0.000867945 0
-1.20718e-05 -0.000868609 0
-1.33799e-05 -0.00048561 0
-1.44583e-05 -0.000488654 0
-1.33799e-05 -0.00048561 0
-1.44583e-05 -0.000488654 0
-1.71574e-05 -0.000826792 0
-1.87565e-05 -0.000828935 0
-1.71574e-05 -0.000826792 0
-1.87565e-05 -0.000828935 0
-2.19337e-05 -0.000541626 0
-2.27783e-05 -0.000544702 0
-2.19337e-05 -0.000541626 0
-2.27783e-05 -0.000544702 0
-2.62204e-05 -0.000799171 0
-2.90462e-05 -0.000802826 0
-2.62204e-05 -0.000799171 0
-2.90462e-05 -0.000802826 0
-3.23855e-05 -0.00058942 0
-3.42214e-05 -0.000592972 0
-3.23855e-05 -0.00058942 0
-3.42214e-05 -0.000592972 0
-3.72797e-05 -0.000780692 0
-4.0261e-05 -0.000784982 0
-4.44192e-05 -0.000624428 0
-3.72797e-05 -0.000780692 0
-4.64218e-05 -0.000629036 0
-4.0261e-05 -0.000784982 0
-4.44192e-05 -0.000624428 0
-4.64218e-05 -0.000629036 0
-5.1375e-05 -0.00075376 0
-5.32784e-05 -0.000759115 0
-5.1375e-05 -0.00075376 0
-5.32784e-05 -0.000759115 0
-6.06007e-05 -0.000626704 0
-6.16383e-05 -0.000633534 0
-6.06007e-05 -0.000626704 0
-6.16383e-05 -0.000633534 0
-7.19717e-05 -0.00069434 0
-7.29122e-05 -0.000702773 0
-7.19717e-05 -0.00069434 0
-7.29122e-05 -0.000702773 0
-8.67319e-05 -0.000584193 0
-8.78015e-05 -0.000595535 0
-8.67319e-05 -0.000584193 0
-8.78015e-05 -0.000595535 0
-0.000106358 -0.000601389 0
-0.000110409 -0.000615991 0
-0.000106358 -0.000601389 0
-0.000110409 -0.000615991 0
-0.00013063 -0.000514438 0
-0.000139542 -0.000532524 0
-0.00013063 -0.000514438 0
-0.000139542 -0.000532524 0
-0.00016023 -0.000500972 0
-0.000178632 -0.000522575 0
-0.00016023 -0.000500972 0
-0.000178632 -0.000522575 0
-0.000192254 -0.000450979 0
-0.000224088 -0.000473975 0
-0.000192254 -0.000450979 0
-0.000224088 -0.000473975 0
-0.000223448 -0.000422544 0
-0.000272125 -0.000444299 0
-0.000223448 -0.000422544 0
-0.000272125 -0.000444299 0
-0.000246639 -0.000423544 0
-0.00031229 -0.00043873 0
-0.000246639 -0.000423544 0
-0.00031229 -0.00043873 0
-0.000254949 -0.000394268 0
-0.000331427 -0.000398166 0
-0.000254949 -0.000394268 0
-0.000331427 -0.000398166 0
-0.000244049 -0.000473757 0
-0.000318956 -0.000463184 0
-0.000244049 -0.000473757 0
-0.000318956 -0.000463184 0
-0.000214952 -0.000465374 0
-0.000276209 -0.000444593 0
-0.000214952 -0.000465374 0
-0.000276209 -0.000444593 0
-0.000175872 -0.000653062 0
-0.000218819 -0.000626642 0
-0.000175872 -0.000653062 0
-0.000218819 -0.000626642 0
-0.000132593 -0.000651871 0
-0.000158487 -0.000626511 0
-0.000132593 -0.000651871 0
-0.000158487 -0.000626511 0
-9.63429e-05 -0.000930352 0
-0.000109041 -0.000907815 0
-9.63429e-05 -0.000930352 0
-0.000109041 -0.000907815 0
-6.2066e-05 -0.000859932 0
-6.66526e-05 -0.000844499 0
-6.2066e-05 -0.000859932 0
-6.66526e-05 -0.000844499 0
-4.57719e-05 -0.00118819 0
-4.79244e-05 -0.0011758 0
-4.57719e-05 -0.00118819 0
-4.79244e-05 -0.0011758 0
-2.5603e-05 -0.000967308 0
-2.4787e-05 -0.000958884 0
-2.5603e-05 -0.000967308 0
-2.4787e-05 -0.000958884 0
-1.94608e-05 -0.00137151 0
-1.98569e-05 -0.00136567 0
-1.94608e-05 -0.00137151 0
-1.98569e-05 -0.00136567 0
-6.27035e-06 -0.000954716 0
-4.43973e-06 -0.00095263 0
-6.27035e-06 -0.000954716 0
-4.43973e-06 -0.00095263 0
-1.26051e-05 -0.00152743 0
-1.16988e-05 -0.00152886 0
-1.26051e-05 -0.00152743 0
-1.16988e-05 -0.00152886 0
-1.24717e-05 -0.000857536 0
-1.1917e-05 -0.000858381 0
-1.24717e-05 -0.000857536 0
-1.1917e-05 -0.000858381 0
-1.77465e-05 -0.00172248 0
-1.60332e-05 -0.0017243 0
0.237559 -0.0967762 0
0.157333 -0.0763499 0
0.208486 0.0122645 0
0.149931 -0.00970243 0
0.157333 -0.0763499 0
0.106809 -0.0612143 0
0.149931 -0.00970243 0
0.104912 -0.0222223 0
0.0756808 -0.0491412 0
0.0764928 -0.0254663 0
0.106809 -0.0612143 0
0.104912 -0.0222223 0
0.0547568 -0.0388499 0
0.0557955 -0.0240048 0
0.0756808 -0.0491412 0
0.0764928 -0.0254663 0
0.0547568 -0.0388499 0
0.0403474 -0.0306486 0
0.0557955 -0.0240048 0
0.0413961 -0.0209622 0
0.0403474 -0.0306486 0
0.0295374 -0.0237846 0
0.0413961 -0.0209622 0
0.0302758 -0.0173142 0
0.021565 -0.0181789 0
0.022127 -0.0137703 0
0.0295374 -0.0237846 0
0.0302758 -0.0173142 0
0.021565 -0.0181789 0
0.015431 -0.0136702 0
0.022127 -0.0137703 0
0.015761 -0.0106136 0
0.015431 -0.0136702 0
0.0108601 -0.0101087 0
0.015761 -0.0106136 0
0.0110993 -0.00793652 0
0.0108601 -0.0101087 0
0.00743326 -0.00739227 0
0.0110993 -0.00793652 0
0.00758917 -0.00582246 0
0.00743326 -0.00739227 0
0.00495427 -0.00534231 0
0.00758917 -0.00582246 0
0.00508843 -0.00416799 0
0.00318239 -0.00386269 0
0.00329034 -0.0029643 0
0.00495427 -0.00534231 0
0.00508843 -0.00416799 0
0.00195683 -0.00279783 0
0.00205709 -0.00208913 0
0.00318239 -0.00386269 0
0.00329034 -0.0029643 0
0.00195683 -0.00279783 0
0.00112556 -0.00207354 0
0.00205709 -0.00208913 0
0.00120744 -0.00148501 0
0.00112556 -0.00207354 0
0.000582842 -0.00157649 0
0.00120744 -0.00148501 0
0.000656726 -0.00106984 0
0.000582842 -0.00157649 0
0.000232191 -0.00125773 0
0.000656726 -0.00106984 0
0.000298834 -0.000797315 0
0.000232191 -0.00125773 0
2.18973e-05 -0.00105361 0
0.000298834 -0.000797315 0
8.98616e-05 -0.000623259 0
2.18973e-05 -0.00105361 0
-0.000105435 -0.000931378 0
8.98616e-05 -0.000623259 0
-3.88236e-05 -0.000523003 0
-0.000105435 -0.000931378 0
-0.00016006 -0.000865221 0
-3.88236e-05 -0.000523003 0