# vtk DataFile Version 3.0
#This file was generated by the deal.II library on 2016/12/20 at 10:57:04
ASCII
DATASET UNSTRUCTURED_GRID

POINTS 7432 double
-1 0.5 0
-0.978723 0.478723 0
-0.970149 0.5 0
-0.964976 0.485465 0
0.12 -0.5 0
0.15 -0.5 0
0.119014 -0.4708 0
0.15 -0.471429 0
0.11755 -0.441479 0
0.119014 -0.4708 0
0.15 -0.442857 0
0.15 -0.471429 0
0.117242 -0.412206 0
0.11755 -0.441479 0
0.15 -0.414286 0
0.15 -0.442857 0
0.118129 -0.383064 0
0.117242 -0.412206 0
0.15 -0.385714 0
0.15 -0.414286 0
0.12021 -0.354337 0
0.118129 -0.383064 0
0.15 -0.357143 0
0.15 -0.385714 0
0.121793 -0.32584 0
0.12021 -0.354337 0
0.15 -0.328571 0
0.15 -0.357143 0
0.122717 -0.296869 0
0.121793 -0.32584 0
0.15 -0.3 0
0.15 -0.328571 0
0.123759 -0.266752 0
0.122717 -0.296869 0
0.153091 -0.267708 0
0.15 -0.3 0
0.18456 -0.26795 0
0.153091 -0.267708 0
0.183333 -0.3 0
0.15 -0.3 0
0.216606 -0.268111 0
0.18456 -0.26795 0
0.216667 -0.3 0
0.183333 -0.3 0
0.24835 -0.26841 0
0.216606 -0.268111 0
0.25 -0.3 0
0.216667 -0.3 0
0.278782 -0.268564 0
0.24835 -0.26841 0
0.279437 -0.298917 0
0.25 -0.3 0
0.279638 -0.328111 0
0.279437 -0.298917 0
0.25 -0.328571 0
0.25 -0.3 0
0.27971 -0.356801 0
0.279638 -0.328111 0
0.25 -0.357143 0
0.25 -0.328571 0
0.279677 -0.385395 0
0.27971 -0.356801 0
0.25 -0.385714 0
0.25 -0.357143 0
0.279641 -0.413938 0
0.279677 -0.385395 0
0.25 -0.414286 0
0.25 -0.385714 0
0.279666 -0.442534 0
0.279641 -0.413938 0
0.25 -0.442857 0
0.25 -0.414286 0
0.279811 -0.471266 0
0.279666 -0.442534 0
0.25 -0.471429 0
0.25 -0.442857 0
0.28 -0.5 0
0.279811 -0.471266 0
0.25 -0.5 0
0.25 -0.471429 0
0.970149 0.5 0
0.970096 0.46978 0
1 0.5 0
1 0.469697 0
0.940299 0.5 0
0.940231 0.46984 0
0.970149 0.5 0
0.970096 0.46978 0
0.910448 0.5 0
0.910371 0.469856 0
0.940299 0.5 0
0.940231 0.46984 0
0.880597 0.5 0
0.880527 0.469909 0
0.910448 0.5 0
0.910371 0.469856 0
0.850746 0.5 0
0.850684 0.469926 0
0.880597 0.5 0
0.880527 0.469909 0
0.820896 0.5 0
0.820842 0.469978 0
0.850746 0.5 0
0.850684 0.469926 0
0.791045 0.5 0
0.791001 0.470016 0
0.820896 0.5 0
0.820842 0.469978 0
0.761194 0.5 0
0.761159 0.470055 0
0.791045 0.5 0
0.791001 0.470016 0
0.731343 0.5 0
0.731316 0.470091 0
0.761194 0.5 0
0.761159 0.470055 0
0.701493 0.5 0
0.701472 0.470118 0
0.731343 0.5 0
0.731316 0.470091 0
0.671642 0.5 0
0.671627 0.470134 0
0.701493 0.5 0
0.701472 0.470118 0
0.641791 0.5 0
0.64178 0.470142 0
0.671642 0.5 0
0.671627 0.470134 0
0.641791 0.5 0
0.61194 0.5 0
0.64178 0.470142 0
0.611934 0.470065 0
0.58209 0.5 0
0.582089 0.470002 0
0.61194 0.5 0
0.611934 0.470065 0
0.552239 0.5 0
0.552248 0.469853 0
0.58209 0.5 0
0.582089 0.470002 0
0.522388 0.5 0
0.522413 0.469718 0
0.552239 0.5 0
0.552248 0.469853 0
0.492537 0.5 0
0.492577 0.469656 0
0.522388 0.5 0
0.522413 0.469718 0
0.462687 0.5 0
0.462743 0.469571 0
0.492537 0.5 0
0.492577 0.469656 0
0.432836 0.5 0
0.432895 0.46963 0
0.462687 0.5 0
0.462743 0.469571 0
0.402985 0.5 0
0.403046 0.469669 0
0.432836 0.5 0
0.432895 0.46963 0
0.373134 0.5 0
0.373191 0.469745 0
0.402985 0.5 0
0.403046 0.469669 0
0.343284 0.5 0
0.343335 0.469723 0
0.373134 0.5 0
0.373191 0.469745 0
0.313433 0.5 0
0.313478 0.469741 0
0.343284 0.5 0
0.343335 0.469723 0
0.283582 0.5 0
0.283622 0.469783 0
0.313433 0.5 0
0.313478 0.469741 0
0.253731 0.5 0
0.253768 0.469742 0
0.283582 0.5 0
0.283622 0.469783 0
0.223881 0.5 0
0.223918 0.469737 0
0.253731 0.5 0
0.253768 0.469742 0
0.19403 0.5 0
0.194064 0.46981 0
0.223881 0.5 0
0.223918 0.469737 0
0.164179 0.5 0
0.16421 0.469881 0
0.19403 0.5 0
0.194064 0.46981 0
0.134328 0.5 0
0.134355 0.46994 0
0.164179 0.5 0
0.16421 0.469881 0
0.104478 0.5 0
0.1045 0.469997 0
0.134328 0.5 0
0.134355 0.46994 0
0.074627 0.5 0
0.074645 0.470051 0
0.104478 0.5 0
0.1045 0.469997 0
0.044776 0.5 0
0.04479 0.470093 0
0.074627 0.5 0
0.074645 0.470051 0
0.014925 0.5 0
0.014935 0.47012 0
0.044776 0.5 0
0.04479 0.470093 0
-0.014925 0.5 0
-0.014918 0.470135 0
0.014925 0.5 0
0.014935 0.47012 0
-0.044776 0.5 0
-0.044771 0.470143 0
-0.014925 0.5 0
-0.014918 0.470135 0
-0.074627 0.5 0
-0.074623 0.470146 0
-0.044776 0.5 0
-0.044771 0.470143 0
-0.104478 0.5 0
-0.104496 0.469979 0
-0.074627 0.5 0
-0.074623 0.470146 0
-0.134328 0.5 0
-0.134359 0.469935 0
-0.104478 0.5 0
-0.104496 0.469979 0
-0.164179 0.5 0
-0.164225 0.469839 0
-0.134328 0.5 0
-0.134359 0.469935 0
-0.164179 0.5 0
-0.19403 0.5 0
-0.164225 0.469839 0
-0.194083 0.469797 0
-0.223881 0.5 0
-0.22394 0.469753 0
-0.19403 0.5 0
-0.194083 0.469797 0
-0.253731 0.5 0
-0.253798 0.469819 0
-0.223881 0.5 0
-0.22394 0.469753 0
-0.283582 0.5 0
-0.283647 0.470019 0
-0.253731 0.5 0
-0.253798 0.469819 0
-0.313433 0.5 0
-0.313491 0.470151 0
-0.283582 0.5 0
-0.283647 0.470019 0
-0.343284 0.5 0
-0.343348 0.470381 0
-0.313433 0.5 0
-0.313491 0.470151 0
-0.343284 0.5 0
-0.373134 0.5 0
-0.343348 0.470381 0
-0.373195 0.470395 0
-0.373134 0.5 0
-0.402985 0.5 0
-0.373195 0.470395 0
-0.403049 0.470404 0
-0.432836 0.5 0
-0.432937 0.470297 0
-0.402985 0.5 0
-0.403049 0.470404 0
-0.462687 0.5 0
-0.462848 0.469995 0
-0.432836 0.5 0
-0.432937 0.470297 0
-0.492537 0.5 0
-0.492807 0.469765 0
-0.462687 0.5 0
-0.462848 0.469995 0
-0.522388 0.5 0
-0.52276 0.46958 0
-0.492537 0.5 0
-0.492807 0.469765 0
-0.552239 0.5 0
-0.55273 0.469652 0
-0.522388 0.5 0
-0.52276 0.46958 0
-0.58209 0.5 0
-0.582662 0.469731 0
-0.552239 0.5 0
-0.55273 0.469652 0
-0.61194 0.5 0
-0.612594 0.469999 0
-0.58209 0.5 0
-0.582662 0.469731 0
-0.641791 0.5 0
-0.642647 0.470419 0
-0.61194 0.5 0
-0.612594 0.469999 0
-0.671642 0.5 0
-0.672638 0.470543 0
-0.641791 0.5 0
-0.642647 0.470419 0
-0.701493 0.5 0
-0.702968 0.4698 0
-0.671642 0.5 0
-0.672638 0.470543 0
-0.701493 0.5 0
-0.731343 0.5 0
-0.702968 0.4698 0
-0.733232 0.468149 0
-0.731343 0.5 0
-0.761194 0.5 0
-0.733232 0.468149 0
-0.765399 0.466448 0
-0.820896 0.5 0
-0.822797 0.47207 0
-0.791045 0.5 0
-0.795702 0.469563 0
0.31 -0.5 0
0.309694 -0.471123 0
0.28 -0.5 0
0.279811 -0.471266 0
0.31 -0.5 0
0.34 -0.5 0
0.309694 -0.471123 0
0.339686 -0.471033 0
0.37 -0.5 0
0.369721 -0.471055 0
0.34 -0.5 0
0.339686 -0.471033 0
0.37 -0.5 0
0.4 -0.5 0
0.369721 -0.471055 0
0.399756 -0.470957 0
0.4 -0.5 0
0.43 -0.5 0
0.399756 -0.470957 0
0.429805 -0.470822 0
0.43 -0.5 0
0.46 -0.5 0
0.429805 -0.470822 0
0.459835 -0.470712 0
0.46 -0.5 0
0.49 -0.5 0
0.459835 -0.470712 0
0.489873 -0.470554 0
0.49 -0.5 0
0.52 -0.5 0
0.489873 -0.470554 0
0.519906 -0.470379 0
0.52 -0.5 0
0.55 -0.5 0
0.519906 -0.470379 0
0.54993 -0.470248 0
0.55 -0.5 0
0.58 -0.5 0
0.54993 -0.470248 0
0.579948 -0.470155 0
0.58 -0.5 0
0.61 -0.5 0
0.579948 -0.470155 0
0.609962 -0.470091 0
0.61 -0.5 0
0.64 -0.5 0
0.609962 -0.470091 0
0.639972 -0.47005 0
0.64 -0.5 0
0.67 -0.5 0
0.639972 -0.47005 0
0.66998 -0.470026 0
0.67 -0.5 0
0.7 -0.5 0
0.66998 -0.470026 0
0.699986 -0.470013 0
0.7 -0.5 0
0.73 -0.5 0
0.699986 -0.470013 0
0.72999 -0.470006 0
0.73 -0.5 0
0.76 -0.5 0
0.72999 -0.470006 0
0.759994 -0.470003 0
0.76 -0.5 0
0.79 -0.5 0
0.759994 -0.470003 0
0.78998 -0.469916 0
0.79 -0.5 0
0.82 -0.5 0
0.78998 -0.469916 0
0.819956 -0.469877 0
0.82 -0.5 0
0.85 -0.5 0
0.819956 -0.469877 0
0.849929 -0.469833 0
0.85 -0.5 0
0.88 -0.5 0
0.849929 -0.469833 0
0.879924 -0.469805 0
0.88 -0.5 0
0.91 -0.5 0
0.879924 -0.469805 0
0.909913 -0.469792 0
0.91 -0.5 0
0.94 -0.5 0
0.909913 -0.469792 0
0.939922 -0.469775 0
0.94 -0.5 0
0.97 -0.5 0
0.939922 -0.469775 0
0.969956 -0.46974 0
0.97 -0.5 0
1 -0.5 0
0.969956 -0.46974 0
1 -0.469697 0
-0.553191 0.053191 0
-0.53184 0.075023 0
-0.574468 0.074468 0
-0.553204 0.096309 0
-0.553191 0.053191 0
-0.531915 0.031915 0
-0.53184 0.075023 0
-0.510492 0.053733 0
-0.531915 0.031915 0
-0.510638 0.010638 0
-0.510492 0.053733 0
-0.489127 0.032461 0
-0.510638 0.010638 0
-0.489362 -0.010638 0
-0.489127 0.032461 0
-0.467791 0.011178 0
-0.489362 -0.010638 0
-0.468085 -0.031915 0
-0.467791 0.011178 0
-0.446536 -0.010172 0
-0.446809 -0.053191 0
-0.42524 -0.031466 0
-0.468085 -0.031915 0
-0.446536 -0.010172 0
-0.425532 -0.074468 0
-0.404012 -0.052824 0
-0.446809 -0.053191 0
-0.42524 -0.031466 0
-0.425532 -0.074468 0
-0.404255 -0.095745 0
-0.404012 -0.052824 0
-0.382783 -0.074175 0
-0.404255 -0.095745 0
-0.382979 -0.117021 0
-0.382783 -0.074175 0
-0.361545 -0.095511 0
-0.382979 -0.117021 0
-0.361702 -0.138298 0
-0.361545 -0.095511 0
-0.340288 -0.116831 0
-0.361702 -0.138298 0
-0.340426 -0.159574 0
-0.340288 -0.116831 0
-0.319034 -0.138159 0
-0.340426 -0.159574 0
-0.319149 -0.180851 0
-0.319034 -0.138159 0
-0.297766 -0.159484 0
-0.319149 -0.180851 0
-0.297872 -0.202128 0
-0.297766 -0.159484 0
-0.276489 -0.180797 0
-0.297872 -0.202128 0
-0.276596 -0.223404 0
-0.276489 -0.180797 0
-0.255087 -0.202105 0
-0.255319 -0.244681 0
-0.233674 -0.223466 0
-0.276596 -0.223404 0
-0.255087 -0.202105 0
-0.234043 -0.265957 0
-0.212119 -0.244916 0
-0.255319 -0.244681 0
-0.233674 -0.223466 0
-0.234043 -0.265957 0
-0.212766 -0.287234 0
-0.212119 -0.244916 0
-0.190657 -0.266392 0
-0.191489 -0.308511 0
-0.169261 -0.287934 0
-0.212766 -0.287234 0
-0.190657 -0.266392 0
-0.170213 -0.329787 0
-0.147854 -0.309624 0
-0.191489 -0.308511 0
-0.169261 -0.287934 0
-0.170213 -0.329787 0
-0.148936 -0.351064 0
-0.147854 -0.309624 0
-0.126431 -0.331364 0
-0.12766 -0.37234 0
-0.105256 -0.353368 0
-0.148936 -0.351064 0
-0.126431 -0.331364 0
-0.12766 -0.37234 0
-0.106383 -0.393617 0
-0.105256 -0.353368 0
-0.083924 -0.375263 0
-0.106383 -0.393617 0
-0.085106 -0.414894 0
-0.083924 -0.375263 0
-0.062097 -0.396824 0
-0.085106 -0.414894 0
-0.06383 -0.43617 0
-0.062097 -0.396824 0
-0.040132 -0.418076 0
-0.06383 -0.43617 0
-0.042553 -0.457447 0
-0.040132 -0.418076 0
-0.019646 -0.439891 0
-0.042553 -0.457447 0
-0.021277 -0.478723 0
-0.019646 -0.439891 0
-0.002475 -0.461393 0
-0.021277 -0.478723 0
0 -0.5 0
-0.002475 -0.461393 0
0.009599 -0.478226 0
0 -0.5 0
0.03 -0.5 0
0.009599 -0.478226 0
0.029922 -0.474701 0
0.03 -0.5 0
0.06 -0.5 0
0.029922 -0.474701 0
0.057397 -0.471689 0
0.06 -0.5 0
0.09 -0.5 0
0.057397 -0.471689 0
0.08796 -0.470463 0
0.09 -0.5 0
0.12 -0.5 0
0.08796 -0.470463 0
0.119014 -0.4708 0
[...]
POINT_DATA 7432
VECTORS momentum double
-0.00152156 0.000744393 0
-0.0188162 0.0180287 0
-0.0213039 0.000583537 0
-0.0309108 0.00803612 0
0.000451832 -0.000414531 0
9.41674e-05 -0.000421526 0
0.000527833 -0.00122269 0
7.98737e-05 -0.00114986 0
0.000387868 -0.00119345 0
0.000527833 -0.00122269 0
0.000102343 -0.00117926 0
7.98737e-05 -0.00114986 0
0.000600372 -0.00188894 0
0.000387868 -0.00119345 0
2.70615e-05 -0.0019209 0
0.000102343 -0.00117926 0
0.000794506 -0.00179113 0
0.000600372 -0.00188894 0
1.1415e-05 -0.00184393 0
2.70615e-05 -0.0019209 0
0.000935345 -0.00221256 0
0.000794506 -0.00179113 0
2.91803e-05 -0.00209951 0
1.1415e-05 -0.00184393 0
0.00140435 -0.00181471 0
0.000935345 -0.00221256 0
-0.000138982 -0.00161983 0
2.91803e-05 -0.00209951 0
0.00171506 -0.0021557 0
0.00140435 -0.00181471 0
0.000950311 -0.000540666 0
-0.000138982 -0.00161983 0
0.00206147 -0.00199044 0
0.00171506 -0.0021557 0
0.00176274 -0.00153154 0
0.000950311 -0.000540666 0
0.00162259 -0.00215136 0
0.00176274 -0.00153154 0
0.00192489 -0.000697675 0
0.000950311 -0.000540666 0
0.0016789 -0.00152734 0
0.00162259 -0.00215136 0
0.0015781 -0.00013595 0
0.00192489 -0.000697675 0
0.00224034 -0.00187577 0
0.0016789 -0.00152734 0
0.000940188 -0.00136904 0
0.0015781 -0.00013595 0
0.00129263 -0.00182071 0
0.00224034 -0.00187577 0
0.000625968 -0.00273792 0
0.000940188 -0.00136904 0
-0.000108248 -0.00166679 0
0.000625968 -0.00273792 0
-0.000353303 -0.00194806 0
0.000940188 -0.00136904 0
0.000149759 -0.0016712 0
-0.000108248 -0.00166679 0
0.000104882 -0.00139898 0
-0.000353303 -0.00194806 0
-1.02373e-05 -0.00110552 0
0.000149759 -0.0016712 0
-5.11663e-05 -0.00127523 0
0.000104882 -0.00139898 0
4.95268e-05 -0.00123562 0
-1.02373e-05 -0.00110552 0
2.43212e-05 -0.00114557 0
-5.11663e-05 -0.00127523 0
-1.62376e-05 -0.000730451 0
4.95268e-05 -0.00123562 0
-1.43118e-05 -0.000785998 0
2.43212e-05 -0.00114557 0
2.03236e-07 -0.000964778 0
-1.62376e-05 -0.000730451 0
6.43671e-06 -0.000935148 0
-1.43118e-05 -0.000785998 0
-3.91617e-06 -0.000409079 0
2.03236e-07 -0.000964778 0
-4.41032e-06 -0.000427589 0
6.43671e-06 -0.000935148 0
-0.000147695 -0.000653808 0
-0.000138536 -0.00177668 0
-0.000135836 -0.000654009 0
-0.000123875 -0.00177733 0
-0.000157831 -0.000654343 0
-0.000151842 -0.00177852 0
-0.000147695 -0.000653808 0
-0.000138536 -0.00177668 0
-0.000163296 -0.000653967 0
-0.000157024 -0.00178077 0
-0.000157831 -0.000654343 0
-0.000151842 -0.00177852 0
-0.000167235 -0.000653074 0
-0.000161593 -0.00178211 0
-0.000163296 -0.000653967 0
-0.000157024 -0.00178077 0
-0.000166935 -0.000652361 0
-0.000160536 -0.00178363 0
-0.000167235 -0.000653074 0
-0.000161593 -0.00178211 0
-0.000164617 -0.000650913 0
-0.000157914 -0.00178474 0
-0.000166935 -0.000652361 0
-0.000160536 -0.00178363 0
-0.000157191 -0.000650137 0
-0.000151049 -0.00178605 0
-0.000164617 -0.000650913 0
-0.000157914 -0.00178474 0
-0.000147689 -0.000648535 0
-0.000141495 -0.00178814 0
-0.000157191 -0.000650137 0
-0.000151049 -0.00178605 0
-0.000132678 -0.000647255 0
-0.00012954 -0.00179044 0
-0.000147689 -0.000648535 0
-0.000141495 -0.00178814 0
-0.000115454 -0.000646417 0
-0.000114368 -0.00179338 0
-0.000132678 -0.000647255 0
-0.00012954 -0.00179044 0
-9.35744e-05 -0.000645119 0
-9.70379e-05 -0.00179612 0
-0.000115454 -0.000646417 0
-0.000114368 -0.00179338 0
-6.94647e-05 -0.000644327 0
-8.21895e-05 -0.00180003 0
-9.35744e-05 -0.000645119 0
-9.70379e-05 -0.00179612 0
-6.94647e-05 -0.000644327 0
-4.77201e-05 -0.000644847 0
-8.21895e-05 -0.00180003 0
-6.56877e-05 -0.00180469 0
-2.68201e-05 -0.000645125 0
-5.21629e-05 -0.00181103 0
-4.77201e-05 -0.000644847 0
-6.56877e-05 -0.00180469 0
-1.07608e-05 -0.000647748 0
-4.02057e-05 -0.00181635 0
-2.68201e-05 -0.000645125 0
-5.21629e-05 -0.00181103 0
-3.44743e-06 -0.000650309 0
-2.56136e-05 -0.00181874 0
-1.07608e-05 -0.000647748 0
-4.02057e-05 -0.00181635 0
3.84318e-06 -0.000651404 0
-1.40379e-05 -0.00181696 0
-3.44743e-06 -0.000650309 0
-2.56136e-05 -0.00181874 0
1.46433e-06 -0.00065323 0
-7.33303e-06 -0.00181303 0
3.84318e-06 -0.000651404 0
-1.40379e-05 -0.00181696 0
-7.57102e-06 -0.000653635 0
-3.9323e-06 -0.0018075 0
1.46433e-06 -0.00065323 0
-7.33303e-06 -0.00181303 0
-1.19137e-05 -0.000652494 0
-9.70704e-07 -0.0018012 0
-7.57102e-06 -0.000653635 0
-3.9323e-06 -0.0018075 0
-4.23777e-06 -0.000650468 0
5.64482e-06 -0.00179653 0
-1.19137e-05 -0.000652494 0
-9.70704e-07 -0.0018012 0
2.01946e-05 -0.000650224 0
2.74533e-05 -0.00178952 0
-4.23777e-06 -0.000650468 0
5.64482e-06 -0.00179653 0
6.20586e-05 -0.000649625 0
7.33754e-05 -0.00178342 0
2.01946e-05 -0.000650224 0
2.74533e-05 -0.00178952 0
0.000136068 -0.000649259 0
0.000146201 -0.00176973 0
6.20586e-05 -0.000649625 0
7.33754e-05 -0.00178342 0
0.000246965 -0.000649797 0
0.000255965 -0.00174699 0
0.000136068 -0.000649259 0
0.000146201 -0.00176973 0
0.000395087 -0.000652293 0
0.000412706 -0.0017141 0
0.000246965 -0.000649797 0
0.000255965 -0.00174699 0
0.000590139 -0.00065508 0
0.00062763 -0.0016714 0
0.000395087 -0.000652293 0
0.000412706 -0.0017141 0
0.000854359 -0.000652593 0
0.000912578 -0.00162198 0
0.000590139 -0.00065508 0
0.00062763 -0.0016714 0
0.00118963 -0.000647987 0
0.0012647 -0.00156136 0
0.000854359 -0.000652593 0
0.000912578 -0.00162198 0
0.00160473 -0.000641575 0
0.0016975 -0.00148557 0
0.00118963 -0.000647987 0
0.0012647 -0.00156136 0
0.00208418 -0.000633757 0
0.00219428 -0.00139262 0
0.00160473 -0.000641575 0
0.0016975 -0.00148557 0
0.00262967 -0.000625684 0
0.00275292 -0.0012768 0
0.00208418 -0.000633757 0
0.00219428 -0.00139262 0
0.00319239 -0.000620194 0
0.00332878 -0.00113453 0
0.00262967 -0.000625684 0
0.00275292 -0.0012768 0
0.00374986 -0.000615171 0
0.00390512 -0.000961584 0
0.00319239 -0.000620194 0
0.00332878 -0.00113453 0
0.00420789 -0.000609241 0
0.00437865 -0.000753572 0
0.00374986 -0.000615171 0
0.00390512 -0.000961584 0
0.00451096 -0.000603866 0
0.00468813 -0.00049869 0
0.00420789 -0.000609241 0
0.00437865 -0.000753572 0
0.00448413 -0.000598446 0
0.00467854 -0.000190029 0
0.00451096 -0.000603866 0
0.00468813 -0.00049869 0
0.00405458 -0.000593951 0
0.00426435 0.000183281 0
0.00448413 -0.000598446 0
0.00467854 -0.000190029 0
0.003012 -0.000588312 0
0.00323433 0.000618502 0
0.00405458 -0.000593951 0
0.00426435 0.000183281 0
0.003012 -0.000588312 0
0.00125769 -0.000582027 0
0.00323433 0.000618502 0
0.00149894 0.00114799 0
-0.00143916 -0.000565148 0
-0.00117586 0.00175152 0
0.00125769 -0.000582027 0
0.00149894 0.00114799 0
-0.00519368 -0.000546783 0
-0.00492019 0.00251365 0
-0.00143916 -0.000565148 0
-0.00117586 0.00175152 0
-0.0102465 -0.000513977 0
-0.00998608 0.00339458 0
-0.00519368 -0.000546783 0
-0.00492019 0.00251365 0
-0.0168053 -0.000482077 0
-0.0165741 0.00452614 0
-0.0102465 -0.000513977 0
-0.00998608 0.00339458 0
-0.0250242 -0.000428706 0
-0.0248734 0.00581694 0
-0.0168053 -0.000482077 0
-0.0165741 0.00452614 0
-0.0250242 -0.000428706 0
-0.0353189 -0.000381213 0
-0.0248734 0.00581694 0
-0.0352883 0.00753217 0
-0.0353189 -0.000381213 0
-0.0476584 -0.000314536 0
-0.0352883 0.00753217 0
-0.047796 0.00947881 0
-0.062814 -0.000261169 0
-0.0631784 0.0119294 0
-0.0476584 -0.000314536 0
-0.047796 0.00947881 0
-0.080272 -0.000181087 0
-0.0809136 0.0146242 0
-0.062814 -0.000261169 0
-0.0631784 0.0119294 0
-0.101245 -0.000141849 0
-0.102342 0.0176185 0
-0.080272 -0.000181087 0
-0.0809136 0.0146242 0
-0.124055 -0.000107505 0
-0.125677 0.0202073 0
-0.101245 -0.000141849 0
-0.102342 0.0176185 0
-0.150607 -0.000153562 0
-0.152786 0.0227409 0
-0.124055 -0.000107505 0
-0.125677 0.0202073 0
-0.177996 -9.48389e-05 0
-0.180414 0.0247062 0
-0.150607 -0.000153562 0
-0.152786 0.0227409 0
-0.209804 -0.000129675 0
-0.212911 0.0273172 0
-0.177996 -9.48389e-05 0
-0.180414 0.0247062 0
-0.24258 -0.000245882 0
-0.245018 0.0298913 0
-0.209804 -0.000129675 0
-0.212911 0.0273172 0
-0.282036 0.000115417 0
-0.283641 0.0340152 0
-0.24258 -0.000245882 0
-0.245018 0.0298913 0
-0.322707 0.000534807 0
-0.323952 0.0368929 0
-0.282036 0.000115417 0
-0.283641 0.0340152 0
-0.322707 0.000534807 0
-0.36479 -0.000659953 0
-0.323952 0.0368929 0
-0.364647 0.0293888 0
-0.36479 -0.000659953 0
-0.38352 0.00038165 0
-0.364647 0.0293888 0
-0.399142 0.00604552 0
-0.356825 -0.000650663 0
-0.348741 -0.0368422 0
-0.382704 -0.00146116 0
-0.389414 -0.032647 0
-1.23148e-05 -0.000411296 0
-1.89989e-05 -0.000963962 0
-3.91617e-06 -0.000409079 0
2.03236e-07 -0.000964778 0
-1.23148e-05 -0.000411296 0
-3.61804e-05 -0.000406904 0
-1.89989e-05 -0.000963962 0
-3.43396e-05 -0.000968893 0
-6.0336e-05 -0.000410862 0
-6.222e-05 -0.00095891 0
-3.61804e-05 -0.000406904 0
-3.43396e-05 -0.000968893 0
-6.0336e-05 -0.000410862 0
-8.44348e-05 -0.000410283 0
-6.222e-05 -0.00095891 0
-8.87201e-05 -0.00095757 0
-8.44348e-05 -0.000410283 0
-0.000108427 -0.000414331 0
-8.87201e-05 -0.00095757 0
-0.000116236 -0.000953387 0
-0.000108427 -0.000414331 0
-0.000134413 -0.000414688 0
-0.000116236 -0.000953387 0
-0.000138773 -0.000956211 0
-0.000134413 -0.000414688 0
-0.000155175 -0.00041596 0
-0.000138773 -0.000956211 0
-0.000163946 -0.00095828 0
-0.000155175 -0.00041596 0
-0.000175633 -0.000417621 0
-0.000163946 -0.00095828 0
-0.000186808 -0.000962691 0
-0.000175633 -0.000417621 0
-0.000195285 -0.000420332 0
-0.000186808 -0.000962691 0
-0.000204943 -0.000965306 0
-0.000195285 -0.000420332 0
-0.000213834 -0.000421982 0
-0.000204943 -0.000965306 0
-0.000219987 -0.000969354 0
-0.000213834 -0.000421982 0
-0.000228286 -0.000423375 0
-0.000219987 -0.000969354 0
-0.000232273 -0.000972102 0
-0.000228286 -0.000423375 0
-0.000240769 -0.000424381 0
-0.000232273 -0.000972102 0
-0.000242308 -0.000975247 0
-0.000240769 -0.000424381 0
-0.00024955 -0.000424879 0
-0.000242308 -0.000975247 0
-0.000248909 -0.000977668 0
-0.00024955 -0.000424879 0
-0.000256592 -0.000425175 0
-0.000248909 -0.000977668 0
-0.00025452 -0.000980414 0
-0.000256592 -0.000425175 0
-0.000259717 -0.000425403 0
-0.00025452 -0.000980414 0
-0.000257759 -0.000983196 0
-0.000259717 -0.000425403 0
-0.000260024 -0.000425594 0
-0.000257759 -0.000983196 0
-0.000261405 -0.000986698 0
-0.000260024 -0.000425594 0
-0.000259729 -0.000426399 0
-0.000261405 -0.000986698 0
-0.000263018 -0.000989737 0
-0.000259729 -0.000426399 0
-0.000260312 -0.000427313 0
-0.000263018 -0.000989737 0
-0.000262951 -0.000993339 0
-0.000260312 -0.000427313 0
-0.000259185 -0.000428329 0
-0.000262951 -0.000993339 0
-0.000260972 -0.000997109 0
-0.000259185 -0.000428329 0
-0.000259063 -0.000429131 0
-0.000260972 -0.000997109 0
-0.000259236 -0.00100087 0
-0.000259063 -0.000429131 0
-0.000255701 -0.00042949 0
-0.000259236 -0.00100087 0
-0.000255418 -0.00100468 0
-0.000255701 -0.00042949 0
-0.000251451 -0.000430014 0
-0.000255418 -0.00100468 0
-0.00025121 -0.00100783 0
-0.000251451 -0.000430014 0
-0.000243716 -0.000430106 0
-0.00025121 -0.00100783 0
-0.000243767 -0.00101015 0
-0.000243716 -0.000430106 0
-0.00023642 -0.000430083 0
-0.000243767 -0.00101015 0
-0.000237269 -0.00101116 0
0.182739 -0.1744 0
0.208302 -0.0954355 0
0.335081 -0.324518 0
0.332252 -0.106964 0
0.182739 -0.1744 0
0.124446 -0.123012 0
0.208302 -0.0954355 0
0.143427 -0.0844114 0
0.124446 -0.123012 0
0.0933757 -0.0927643 0
0.143427 -0.0844114 0
0.106181 -0.070062 0
0.0933757 -0.0927643 0
0.0742744 -0.0741497 0
0.106181 -0.070062 0
0.0826199 -0.0592611 0
0.0742744 -0.0741497 0
0.0611583 -0.0612116 0
0.0826199 -0.0592611 0
0.0669629 -0.0508471 0
0.0518944 -0.0520791 0
0.0559089 -0.0444178 0
0.0611583 -0.0612116 0
0.0669629 -0.0508471 0
0.0449905 -0.0452436 0
0.0478676 -0.039449 0
0.0518944 -0.0520791 0
0.0559089 -0.0444178 0
0.0449905 -0.0452436 0
0.0396815 -0.039997 0
0.0478676 -0.039449 0
0.0417424 -0.0354296 0
0.0396815 -0.039997 0
0.0354575 -0.0358055 0
0.0417424 -0.0354296 0
0.0369422 -0.0321509 0
0.0354575 -0.0358055 0
0.0319381 -0.0323121 0
0.0369422 -0.0321509 0
0.0329957 -0.0293091 0
0.0319381 -0.0323121 0
0.0289225 -0.0293107 0
0.0329957 -0.0293091 0
0.0296465 -0.026816 0
0.0289225 -0.0293107 0
0.026207 -0.0266063 0
0.0296465 -0.026816 0
0.0266729 -0.024493 0
0.026207 -0.0266063 0
0.0237246 -0.0241314 0
0.0266729 -0.024493 0
0.0239843 -0.0223328 0
0.0237246 -0.0241314 0
0.0213721 -0.0217851 0
0.0239843 -0.0223328 0
0.021456 -0.0202449 0
0.0191649 -0.0195748 0
0.0191027 -0.0182572 0
0.0213721 -0.0217851 0
0.021456 -0.0202449 0
0.0170378 -0.0174448 0
0.0168164 -0.0163142 0
0.0191649 -0.0195748 0
0.0191027 -0.0182572 0
0.0170378 -0.0174448 0
0.015056 -0.0154736 0
0.0168164 -0.0163142 0
0.014714 -0.0144751 0
0.0131459 -0.0135819 0
0.0127071 -0.012708 0
0.015056 -0.0154736 0
0.014714 -0.0144751 0
0.0114124 -0.0118807 0
0.0109416 -0.0110931 0
0.0131459 -0.0135819 0
0.0127071 -0.012708 0
0.0114124 -0.0118807 0
0.00975456 -0.0102275 0
0.0109416 -0.0110931 0
0.00923339 -0.0095898 0
0.00836488 -0.00882952 0
0.00776347 -0.00829415 0
0.00975456 -0.0102275 0
0.00923339 -0.0095898 0
0.00836488 -0.00882952 0
0.00703362 -0.00750705 0
0.00776347 -0.00829415 0
0.00637047 -0.00701182 0
0.00703362 -0.00750705 0
0.00591923 -0.00640309 0
0.00637047 -0.00701182 0
0.00529134 -0.00595256 0
0.00591923 -0.00640309 0
0.00473213 -0.00522396 0
0.00529134 -0.00595256 0
0.00419476 -0.00471339 0
0.00473213 -0.00522396 0
0.00357714 -0.00399777 0
0.00419476 -0.00471339 0
0.00348819 -0.00391961 0
0.00357714 -0.00399777 0
0.00238813 -0.00273604 0
0.00348819 -0.00391961 0
0.0025054 -0.00240597 0
0.00238813 -0.00273604 0
0.00108368 -0.000880051 0
0.0025054 -0.00240597 0
0.00198516 -0.00200061 0
0.00108368 -0.000880051 0
0.00205867 -0.000274016 0
0.00198516 -0.00200061 0
0.00205442 -0.00152428 0
0.00205867 -0.000274016 0
0.00170996 -0.00040502 0
0.00205442 -0.00152428 0
0.00136924 -0.00135363 0
0.00170996 -0.00040502 0
0.00126221 -0.000472252 0
0.00136924 -0.00135363 0
0.00120463 -0.00119357 0
0.00126221 -0.000472252 0
0.000451832 -0.000414531 0
0.00120463 -0.00119357 0
0.000527833 -0.00122269 0
-0.000243767 -0.00101015 0
-0.000237269 -0.00101116 0
-0.000244612 -0.000766234 0
-0.000238911 -0.000769979 0
-0.000244612 -0.000766234 0
-0.000238911 -0.000769979 0
-0.000249391 -0.00123969 0
-0.000244413 -0.00124287 0
-0.000249391 -0.00123969 0
-0.000244413 -0.00124287 0
-0.000257454 -0.00108979 0
-0.000251881 -0.00109444 0
-0.000257454 -0.00108979 0
-0.000251881 -0.00109444 0
-0.000267139 -0.00147336 0
-0.000263613 -0.00147917 0
-0.000267139 -0.00147336 0
-0.000263613 -0.00147917 0
-0.000280212 -0.00138777 0
-0.000275927 -0.00139414 0
-0.000280212 -0.00138777 0
-0.000275927 -0.00139414 0
-0.000293626 -0.00169312 0
-0.000290816 -0.00170082 0
-0.000310751 -0.00164878 0
-0.000293626 -0.00169312 0
-0.000307677 -0.00165735 0
-0.000290816 -0.00170082 0
-0.000310751 -0.00164878 0
-0.000307677 -0.00165735 0
-0.000329596 -0.00188375 0
-0.00032737 -0.00189335 0
-0.000329596 -0.00188375 0
-0.00032737 -0.00189335 0
-0.000352229 -0.00186275 0
-0.000350434 -0.00187389 0
-0.000352229 -0.00186275 0
-0.000350434 -0.00187389 0
-0.000378874 -0.00203283 0
-0.000378536 -0.00204516 0
-0.000378874 -0.00203283 0
-0.000378536 -0.00204516 0
-0.000410231 -0.00202281 0
-0.000411907 -0.00203733 0
-0.000410231 -0.00202281 0
-0.000411907 -0.00203733 0
-0.000448313 -0.00213122 0
-0.000455304 -0.00214787 0
-0.000448313 -0.00213122 0
-0.000455304 -0.00214787 0
-0.000492148 -0.00212232 0
-0.000506825 -0.00214124 0
-0.000492148 -0.00212232 0
-0.000506825 -0.00214124 0
-0.00054264 -0.00216697 0
-0.000570315 -0.00218815 0
-0.00054264 -0.00216697 0
-0.000570315 -0.00218815 0
-0.000594904 -0.00214846 0
-0.00064004 -0.00217003 0
-0.000594904 -0.00214846 0
-0.00064004 -0.00217003 0
-0.000644022 -0.00212138 0
-0.000710451 -0.00214109 0
-0.000644022 -0.00212138 0
-0.000710451 -0.00214109 0
-0.000678382 -0.00208686 0
-0.000765743 -0.00209993 0
-0.000678382 -0.00208686 0
-0.000765743 -0.00209993 0
-0.000687926 -0.00198816 0
-0.000788702 -0.00199046 0
-0.000687926 -0.00198816 0
-0.000788702 -0.00199046 0
-0.000664905 -0.00196006 0
-0.000764175 -0.0019488 0
-0.000664905 -0.00196006 0
-0.000764175 -0.0019488 0
-0.000611546 -0.00181851 0
-0.000694721 -0.00179799 0
-0.000611546 -0.00181851 0
-0.000694721 -0.00179799 0
-0.000538892 -0.00184642 0
-0.000599358 -0.00182059 0
-0.000538892 -0.00184642 0
-0.000599358 -0.00182059 0
-0.000458304 -0.00168114 0
-0.000496198 -0.00165613 0
-0.000458304 -0.00168114 0
-0.000496198 -0.00165613 0
-0.000384638 -0.00179053 0
-0.000403601 -0.00176749 0
-0.000384638 -0.00179053 0
-0.000403601 -0.00176749 0
-0.000315882 -0.00157421 0
-0.000321484 -0.00155747 0
-0.000315882 -0.00157421 0
-0.000321484 -0.00155747 0
-0.000268411 -0.001769 0
-0.00026736 -0.00175433 0
-0.000268411 -0.001769 0
-0.00026736 -0.00175433 0
-0.000220221 -0.00145141 0
-0.000212907 -0.00144001 0
-0.000220221 -0.00145141 0
-0.000212907 -0.00144001 0
-0.000188287 -0.00176172 0
-0.000179826 -0.00175262 0
-0.000188287 -0.00176172 0
-0.000179826 -0.00175262 0
-0.00015377 -0.00127788 0
-0.000141286 -0.00127257 0
-0.00015377 -0.00127788 0
-0.000141286 -0.00127257 0
-0.000144538 -0.0017603 0
-0.000131857 -0.00175892 0
-0.000144538 -0.0017603 0
-0.000131857 -0.00175892 0
-0.000136501 -0.00102224 0
-0.00012328 -0.00102079 0
-0.000136501 -0.00102224 0
-0.00012328 -0.00102079 0
-0.000138536 -0.00177668 0
-0.000123875 -0.00177733 0
0.208302 -0.0954355 0
0.188868 -0.0209424 0
0.332252 -0.106964 0
0.240648 0.0252974 0
0.208302 -0.0954355 0
0.143427 -0.0844114 0
0.188868 -0.0209424 0
0.1395 -0.0355218 0
0.143427 -0.0844114 0
0.106181 -0.070062 0
0.1395 -0.0355218 0
0.107422 -0.0402345 0
0.106181 -0.070062 0
0.0826199 -0.0592611 0
0.107422 -0.0402345 0
0.084714 -0.0386099 0
0.0826199 -0.0592611 0
0.0669629 -0.0508471 0
0.084714 -0.0386099 0
0.0692335 -0.0364779 0
0.0559089 -0.0444178 0
0.0579431 -0.0336606 0
0.0669629 -0.0508471 0
0.0692335 -0.0364779 0
0.0478676 -0.039449 0
0.0495785 -0.0312402 0
0.0559089 -0.0444178 0
0.0579431 -0.0336606 0
0.0478676 -0.039449 0
0.0417424 -0.0354296 0
0.0495785 -0.0312402 0
0.0431762 -0.0289068 0
0.0417424 -0.0354296 0
0.0369422 -0.0321509 0
0.0431762 -0.0289068 0
0.0380684 -0.0268315 0
0.0369422 -0.0321509 0
0.0329957 -0.0293091 0
0.0380684 -0.0268315 0
0.0339066 -0.0248828 0
0.0329957 -0.0293091 0
0.0296465 -0.026816 0
0.0339066 -0.0248828 0
0.0303424 -0.0230288 0
0.0296465 -0.026816 0
0.0266729 -0.024493 0
0.0303424 -0.0230288 0
0.0272122 -0.0212281 0
0.0266729 -0.024493 0
0.0239843 -0.0223328 0
0.0272122 -0.0212281 0
0.0243424 -0.019469 0
0.0239843 -0.0223328 0
0.021456 -0.0202449 0
0.0243424 -0.019469 0
0.021689 -0.0177253 0
0.0191027 -0.0182572 0
0.0192084 -0.0159851 0
0.021456 -0.0202449 0
0.021689 -0.0177253 0
0.0168164 -0.0163142 0
0.0168709 -0.0142795 0
0.0191027 -0.0182572 0
0.0192084 -0.0159851 0
0.0168164 -0.0163142 0
0.014714 -0.0144751 0
0.0168709 -0.0142795 0
0.0146898 -0.0126394 0
0.0127071 -0.012708 0
0.0125906 -0.0111162 0
0.014714 -0.0144751 0
0.0146898 -0.0126394 0
0.0109416 -0.0110931 0
0.010715 -0.00967603 0
0.0127071 -0.012708 0
0.0125906 -0.0111162 0
0.0109416 -0.0110931 0
0.00923339 -0.0095898 0
0.010715 -0.00967603 0
0.00889874 -0.00826458 0
0.00776347 -0.00829415 0
0.00738576 -0.00700157 0
0.00923339 -0.0095898 0
0.00889874 -0.00826458 0
0.00776347 -0.00829415 0
0.00637047 -0.00701182 0
0.00738576 -0.00700157 0
0.00592378 -0.00596328 0
0.00637047 -0.00701182 0
0.00529134 -0.00595256 0
0.00592378 -0.00596328 0
0.00495898 -0.00492375 0
0.00529134 -0.00595256 0
0.00419476 -0.00471339 0
0.00495898 -0.00492375 0
0.00372529 -0.0040024 0
0.00419476 -0.00471339 0
0.00348819 -0.00391961 0
0.00372529 -0.0040024 0
0.00319222 -0.00308022 0
0.00246516 -0.00145163 0
0.00205442 -0.00152428 0
0.00167134 -0.00169723 0
0.00136924 -0.00135363 0
0.00167134 -0.00169723 0
0.00136924 -0.00135363 0
0.00120324 -0.00156055 0
0.00120463 -0.00119357 0
0.00120324 -0.00156055 0
0.00120463 -0.00119357 0
0.000387868 -0.00119345 0
0.000527833 -0.00122269 0
0.00136096 -0.00230877 0
0.00120324 -0.00156055 0
0.000600372 -0.00188894 0
0.000387868 -0.00119345 0
0.00154962 -0.00202638 0
0.00136096 -0.00230877 0
0.000794506 -0.00179113 0
0.000600372 -0.00188894 0