# vtk DataFile Version 3.0
#This file was generated by the deal.II library on 2016/12/20 at 10:56:49
ASCII
DATASET UNSTRUCTURED_GRID

POINTS 7300 double
-1 0.5 0
-0.978723 0.478723 0
-0.970149 0.5 0
-0.964976 0.485465 0
0.12 -0.5 0
0.15 -0.5 0
0.119014 -0.4708 0
0.15 -0.471429 0
0.11755 -0.441479 0
0.119014 -0.4708 0
0.15 -0.442857 0
0.15 -0.471429 0
0.117242 -0.412206 0
0.11755 -0.441479 0
0.15 -0.414286 0
0.15 -0.442857 0
0.118129 -0.383064 0
0.117242 -0.412206 0
0.15 -0.385714 0
0.15 -0.414286 0
0.12021 -0.354337 0
0.118129 -0.383064 0
0.15 -0.357143 0
0.15 -0.385714 0
0.121793 -0.32584 0
0.12021 -0.354337 0
0.15 -0.328571 0
0.15 -0.357143 0
0.122717 -0.296869 0
0.121793 -0.32584 0
0.15 -0.3 0
0.15 -0.328571 0
0.123759 -0.266752 0
0.122717 -0.296869 0
0.153091 -0.267708 0
0.15 -0.3 0
0.18456 -0.26795 0
0.153091 -0.267708 0
0.183333 -0.3 0
0.15 -0.3 0
0.216606 -0.268111 0
0.18456 -0.26795 0
0.216667 -0.3 0
0.183333 -0.3 0
0.24835 -0.26841 0
0.216606 -0.268111 0
0.25 -0.3 0
0.216667 -0.3 0
0.278782 -0.268564 0
0.24835 -0.26841 0
0.279437 -0.298917 0
0.25 -0.3 0
0.279638 -0.328111 0
0.279437 -0.298917 0
0.25 -0.328571 0
0.25 -0.3 0
0.27971 -0.356801 0
0.279638 -0.328111 0
0.25 -0.357143 0
0.25 -0.328571 0
0.279677 -0.385395 0
0.27971 -0.356801 0
0.25 -0.385714 0
0.25 -0.357143 0
0.279641 -0.413938 0
0.279677 -0.385395 0
0.25 -0.414286 0
0.25 -0.385714 0
0.279666 -0.442534 0
0.279641 -0.413938 0
0.25 -0.442857 0
0.25 -0.414286 0
0.279811 -0.471266 0
0.279666 -0.442534 0
0.25 -0.471429 0
0.25 -0.442857 0
0.28 -0.5 0
0.279811 -0.471266 0
0.25 -0.5 0
0.25 -0.471429 0
0.970149 0.5 0
0.970096 0.46978 0
1 0.5 0
1 0.469697 0
0.940299 0.5 0
0.940231 0.46984 0
0.970149 0.5 0
0.970096 0.46978 0
0.910448 0.5 0
0.910371 0.469856 0
0.940299 0.5 0
0.940231 0.46984 0
0.880597 0.5 0
0.880527 0.469909 0
0.910448 0.5 0
0.910371 0.469856 0
0.850746 0.5 0
0.850684 0.469926 0
0.880597 0.5 0
0.880527 0.469909 0
0.820896 0.5 0
0.820842 0.469978 0
0.850746 0.5 0
0.850684 0.469926 0
0.791045 0.5 0
0.791001 0.470016 0
0.820896 0.5 0
0.820842 0.469978 0
0.761194 0.5 0
0.761159 0.470055 0
0.791045 0.5 0
0.791001 0.470016 0
0.731343 0.5 0
0.731316 0.470091 0
0.761194 0.5 0
0.761159 0.470055 0
0.701493 0.5 0
0.701472 0.470118 0
0.731343 0.5 0
0.731316 0.470091 0
0.671642 0.5 0
0.671627 0.470134 0
0.701493 0.5 0
0.701472 0.470118 0
0.641791 0.5 0
0.64178 0.470142 0
0.671642 0.5 0
0.671627 0.470134 0
0.641791 0.5 0
0.61194 0.5 0
0.64178 0.470142 0
0.611934 0.470065 0
0.58209 0.5 0
0.582089 0.470002 0
0.61194 0.5 0
0.611934 0.470065 0
0.552239 0.5 0
0.552248 0.469853 0
0.58209 0.5 0
0.582089 0.470002 0
0.522388 0.5 0
0.522413 0.469718 0
0.552239 0.5 0
0.552248 0.469853 0
0.492537 0.5 0
0.492577 0.469656 0
0.522388 0.5 0
0.522413 0.469718 0
0.462687 0.5 0
0.462743 0.469571 0
0.492537 0.5 0
0.492577 0.469656 0
0.432836 0.5 0
0.432895 0.46963 0
0.462687 0.5 0
0.462743 0.469571 0
0.402985 0.5 0
0.403046 0.469669 0
0.432836 0.5 0
0.432895 0.46963 0
0.373134 0.5 0
0.373191 0.469745 0
0.402985 0.5 0
0.403046 0.469669 0
0.343284 0.5 0
0.343335 0.469723 0
0.373134 0.5 0
0.373191 0.469745 0
0.313433 0.5 0
0.313478 0.469741 0
0.343284 0.5 0
0.343335 0.469723 0
0.283582 0.5 0
0.283622 0.469783 0
0.313433 0.5 0
0.313478 0.469741 0
0.253731 0.5 0
0.253768 0.469742 0
0.283582 0.5 0
0.283622 0.469783 0
0.223881 0.5 0
0.223918 0.469737 0
0.253731 0.5 0
0.253768 0.469742 0
0.19403 0.5 0
0.194064 0.46981 0
0.223881 0.5 0
0.223918 0.469737 0
0.164179 0.5 0
0.16421 0.469881 0
0.19403 0.5 0
0.194064 0.46981 0
0.134328 0.5 0
0.134355 0.46994 0
0.164179 0.5 0
0.16421 0.469881 0
0.104478 0.5 0
0.1045 0.469997 0
0.134328 0.5 0
0.134355 0.46994 0
0.074627 0.5 0
0.074645 0.470051 0
0.104478 0.5 0
0.1045 0.469997 0
0.044776 0.5 0
0.04479 0.470093 0
0.074627 0.5 0
0.074645 0.470051 0
0.014925 0.5 0
0.014935 0.47012 0
0.044776 0.5 0
0.04479 0.470093 0
-0.014925 0.5 0
-0.014918 0.470135 0
0.014925 0.5 0
0.014935 0.47012 0
-0.044776 0.5 0
-0.044771 0.470143 0
-0.014925 0.5 0
-0.014918 0.470135 0
-0.074627 0.5 0
-0.074623 0.470146 0
-0.044776 0.5 0
-0.044771 0.470143 0
-0.104478 0.5 0
-0.104496 0.469979 0
-0.074627 0.5 0
-0.074623 0.470146 0
-0.134328 0.5 0
-0.134359 0.469935 0
-0.104478 0.5 0
-0.104496 0.469979 0
-0.164179 0.5 0
-0.164225 0.469839 0
-0.134328 0.5 0
-0.134359 0.469935 0
-0.164179 0.5 0
-0.19403 0.5 0
-0.164225 0.469839 0
-0.194083 0.469797 0
-0.223881 0.5 0
-0.22394 0.469753 0
-0.19403 0.5 0
-0.194083 0.469797 0
-0.253731 0.5 0
-0.253798 0.469819 0
-0.223881 0.5 0
-0.22394 0.469753 0
-0.283582 0.5 0
-0.283647 0.470019 0
-0.253731 0.5 0
-0.253798 0.469819 0
-0.313433 0.5 0
-0.313491 0.470151 0
-0.283582 0.5 0
-0.283647 0.470019 0
-0.343284 0.5 0
-0.343348 0.470381 0
-0.313433 0.5 0
-0.313491 0.470151 0
-0.343284 0.5 0
-0.373134 0.5 0
-0.343348 0.470381 0
-0.373195 0.470395 0
-0.373134 0.5 0
-0.402985 0.5 0
-0.373195 0.470395 0
-0.403049 0.470404 0
-0.432836 0.5 0
-0.432937 0.470297 0
-0.402985 0.5 0
-0.403049 0.470404 0
-0.462687 0.5 0
-0.462848 0.469995 0
-0.432836 0.5 0
-0.432937 0.470297 0
-0.492537 0.5 0
-0.492807 0.469765 0
-0.462687 0.5 0
-0.462848 0.469995 0
-0.522388 0.5 0
-0.52276 0.46958 0
-0.492537 0.5 0
-0.492807 0.469765 0
-0.552239 0.5 0
-0.55273 0.469652 0
-0.522388 0.5 0
-0.52276 0.46958 0
-0.58209 0.5 0
-0.582662 0.469731 0
-0.552239 0.5 0
-0.55273 0.469652 0
-0.61194 0.5 0
-0.612594 0.469999 0
-0.58209 0.5 0
-0.582662 0.469731 0
-0.641791 0.5 0
-0.642647 0.470419 0
-0.61194 0.5 0
-0.612594 0.469999 0
-0.671642 0.5 0
-0.672638 0.470543 0
-0.641791 0.5 0
-0.642647 0.470419 0
-0.701493 0.5 0
-0.702968 0.4698 0
-0.671642 0.5 0
-0.672638 0.470543 0
-0.820896 0.5 0
-0.822797 0.47207 0
-0.791045 0.5 0
-0.795702 0.469563 0
0.31 -0.5 0
0.309694 -0.471123 0
0.28 -0.5 0
0.279811 -0.471266 0
0.31 -0.5 0
0.34 -0.5 0
0.309694 -0.471123 0
0.339686 -0.471033 0
0.37 -0.5 0
0.369721 -0.471055 0
0.34 -0.5 0
0.339686 -0.471033 0
0.37 -0.5 0
0.4 -0.5 0
0.369721 -0.471055 0
0.399756 -0.470957 0
0.4 -0.5 0
0.43 -0.5 0
0.399756 -0.470957 0
0.429805 -0.470822 0
0.43 -0.5 0
0.46 -0.5 0
0.429805 -0.470822 0
0.459835 -0.470712 0
0.46 -0.5 0
0.49 -0.5 0
0.459835 -0.470712 0
0.489873 -0.470554 0
0.49 -0.5 0
0.52 -0.5 0
0.489873 -0.470554 0
0.519906 -0.470379 0
0.52 -0.5 0
0.55 -0.5 0
0.519906 -0.470379 0
0.54993 -0.470248 0
0.55 -0.5 0
0.58 -0.5 0
0.54993 -0.470248 0
0.579948 -0.470155 0
0.58 -0.5 0
0.61 -0.5 0
0.579948 -0.470155 0
0.609962 -0.470091 0
0.61 -0.5 0
0.64 -0.5 0
0.609962 -0.470091 0
0.639972 -0.47005 0
0.64 -0.5 0
0.67 -0.5 0
0.639972 -0.47005 0
0.66998 -0.470026 0
0.67 -0.5 0
0.7 -0.5 0
0.66998 -0.470026 0
0.699986 -0.470013 0
0.7 -0.5 0
0.73 -0.5 0
0.699986 -0.470013 0
0.72999 -0.470006 0
0.73 -0.5 0
0.76 -0.5 0
0.72999 -0.470006 0
0.759994 -0.470003 0
0.76 -0.5 0
0.79 -0.5 0
0.759994 -0.470003 0
0.78998 -0.469916 0
0.79 -0.5 0
0.82 -0.5 0
0.78998 -0.469916 0
0.819956 -0.469877 0
0.82 -0.5 0
0.85 -0.5 0
0.819956 -0.469877 0
0.849929 -0.469833 0
0.85 -0.5 0
0.88 -0.5 0
0.849929 -0.469833 0
0.879924 -0.469805 0
0.88 -0.5 0
0.91 -0.5 0
0.879924 -0.469805 0
0.909913 -0.469792 0
0.91 -0.5 0
0.94 -0.5 0
0.909913 -0.469792 0
0.939922 -0.469775 0
0.94 -0.5 0
0.97 -0.5 0
0.939922 -0.469775 0
0.969956 -0.46974 0
0.97 -0.5 0
1 -0.5 0
0.969956 -0.46974 0
1 -0.469697 0
-0.680851 0.180851 0
-0.659574 0.159574 0
-0.659597 0.203254 0
-0.638233 0.18203 0
-0.638298 0.138298 0
-0.616915 0.16063 0
-0.659574 0.159574 0
-0.638233 0.18203 0
-0.617021 0.117021 0
-0.595665 0.139192 0
-0.638298 0.138298 0
-0.616915 0.16063 0
-0.617021 0.117021 0
-0.595745 0.095745 0
-0.595665 0.139192 0
-0.574431 0.117764 0
-0.595745 0.095745 0
-0.574468 0.074468 0
-0.574431 0.117764 0
-0.553204 0.096309 0
-0.553191 0.053191 0
-0.53184 0.075023 0
-0.574468 0.074468 0
-0.553204 0.096309 0
-0.553191 0.053191 0
-0.531915 0.031915 0
-0.53184 0.075023 0
-0.510492 0.053733 0
-0.531915 0.031915 0
-0.510638 0.010638 0
-0.510492 0.053733 0
-0.489127 0.032461 0
-0.510638 0.010638 0
-0.489362 -0.010638 0
-0.489127 0.032461 0
-0.467791 0.011178 0
-0.489362 -0.010638 0
-0.468085 -0.031915 0
-0.467791 0.011178 0
-0.446536 -0.010172 0
-0.446809 -0.053191 0
-0.42524 -0.031466 0
-0.468085 -0.031915 0
-0.446536 -0.010172 0
-0.425532 -0.074468 0
-0.404012 -0.052824 0
-0.446809 -0.053191 0
-0.42524 -0.031466 0
-0.425532 -0.074468 0
-0.404255 -0.095745 0
-0.404012 -0.052824 0
-0.382783 -0.074175 0
-0.404255 -0.095745 0
-0.382979 -0.117021 0
-0.382783 -0.074175 0
-0.361545 -0.095511 0
-0.382979 -0.117021 0
-0.361702 -0.138298 0
-0.361545 -0.095511 0
-0.340288 -0.116831 0
-0.361702 -0.138298 0
-0.340426 -0.159574 0
-0.340288 -0.116831 0
-0.319034 -0.138159 0
-0.340426 -0.159574 0
-0.319149 -0.180851 0
-0.319034 -0.138159 0
-0.297766 -0.159484 0
-0.319149 -0.180851 0
-0.297872 -0.202128 0
-0.297766 -0.159484 0
-0.276489 -0.180797 0
-0.297872 -0.202128 0
-0.276596 -0.223404 0
-0.276489 -0.180797 0
-0.255087 -0.202105 0
-0.255319 -0.244681 0
-0.233674 -0.223466 0
-0.276596 -0.223404 0
-0.255087 -0.202105 0
-0.234043 -0.265957 0
-0.212119 -0.244916 0
-0.255319 -0.244681 0
-0.233674 -0.223466 0
-0.234043 -0.265957 0
-0.212766 -0.287234 0
-0.212119 -0.244916 0
-0.190657 -0.266392 0
-0.191489 -0.308511 0
-0.169261 -0.287934 0
-0.212766 -0.287234 0
-0.190657 -0.266392 0
-0.170213 -0.329787 0
-0.147854 -0.309624 0
-0.191489 -0.308511 0
-0.169261 -0.287934 0
-0.170213 -0.329787 0
-0.148936 -0.351064 0
-0.147854 -0.309624 0
-0.126431 -0.331364 0
-0.12766 -0.37234 0
-0.105256 -0.353368 0
-0.148936 -0.351064 0
-0.126431 -0.331364 0
-0.12766 -0.37234 0
-0.106383 -0.393617 0
-0.105256 -0.353368 0
-0.083924 -0.375263 0
-0.106383 -0.393617 0
-0.085106 -0.414894 0
-0.083924 -0.375263 0
-0.062097 -0.396824 0
-0.085106 -0.414894 0
-0.06383 -0.43617 0
-0.062097 -0.396824 0
-0.040132 -0.418076 0
-0.06383 -0.43617 0
-0.042553 -0.457447 0
-0.040132 -0.418076 0
-0.019646 -0.439891 0
-0.042553 -0.457447 0
-0.021277 -0.478723 0
-0.019646 -0.439891 0
-0.002475 -0.461393 0
-0.021277 -0.478723 0
0 -0.5 0
-0.002475 -0.461393 0
0.009599 -0.478226 0
[...]
POINT_DATA 7300
VECTORS momentum double
0.000862074 -0.00077529 0
0.00347547 -0.00378998 0
0.011343 -0.00109106 0
0.0128713 0.00166206 0
-7.57927e-05 -0.000400264 0
6.98727e-05 -0.000402404 0
-1.56626e-05 -0.000909736 0
6.28433e-05 -0.000871316 0
-0.00020007 -0.000549959 0
-1.56626e-05 -0.000909736 0
7.37155e-05 -0.000587852 0
6.28433e-05 -0.000871316 0
-4.42652e-05 -0.000975513 0
-0.00020007 -0.000549959 0
-1.10538e-06 -0.00108035 0
7.37155e-05 -0.000587852 0
2.95021e-05 -0.000653763 0
-4.42652e-05 -0.000975513 0
-1.39933e-05 -0.000748161 0
-1.10538e-06 -0.00108035 0
3.7988e-05 -0.00095389 0
2.95021e-05 -0.000653763 0
-3.86374e-05 -0.000970897 0
-1.39933e-05 -0.000748161 0
0.00014165 -0.000680279 0
3.7988e-05 -0.00095389 0
1.00606e-06 -0.000632903 0
-3.86374e-05 -0.000970897 0
1.61085e-05 -0.00117206 0
0.00014165 -0.000680279 0
-4.092e-05 -0.000586702 0
1.00606e-06 -0.000632903 0
-0.000469664 -0.000703068 0
1.61085e-05 -0.00117206 0
-0.000704997 -0.000907664 0
-4.092e-05 -0.000586702 0
-0.000341908 -0.00123859 0
-0.000704997 -0.000907664 0
-3.91275e-05 -0.000430699 0
-4.092e-05 -0.000586702 0
-0.000182618 -0.001302 0
-0.000341908 -0.00123859 0
-0.000531747 -0.000496415 0
-3.91275e-05 -0.000430699 0
2.72609e-05 -0.000795592 0
-0.000182618 -0.001302 0
-0.000240979 -0.00045433 0
-0.000531747 -0.000496415 0
-2.3437e-05 -0.000526882 0
2.72609e-05 -0.000795592 0
-0.000248049 -0.000858014 0
-0.000240979 -0.00045433 0
-5.78011e-05 -0.000445016 0
-0.000248049 -0.000858014 0
2.37606e-05 -0.000315044 0
-0.000240979 -0.00045433 0
-4.05518e-05 -0.00077008 0
-5.78011e-05 -0.000445016 0
-1.92281e-05 -0.000786898 0
2.37606e-05 -0.000315044 0
9.6395e-06 -0.000429064 0
-4.05518e-05 -0.00077008 0
3.35323e-06 -0.000405569 0
-1.92281e-05 -0.000786898 0
-2.30565e-05 -0.000799588 0
9.6395e-06 -0.000429064 0
-4.3022e-06 -0.000808866 0
3.35323e-06 -0.000405569 0
4.97438e-06 -0.000407445 0
-2.30565e-05 -0.000799588 0
1.28147e-06 -0.000397893 0
-4.3022e-06 -0.000808866 0
-1.98096e-05 -0.000845184 0
4.97438e-06 -0.000407445 0
-2.60748e-06 -0.000848553 0
1.28147e-06 -0.000397893 0
9.61026e-06 -0.000379205 0
-1.98096e-05 -0.000845184 0
1.88125e-06 -0.00037384 0
-2.60748e-06 -0.000848553 0
-3.20684e-05 -0.000658383 0
-2.15331e-05 -0.00170199 0
-3.39748e-05 -0.000658567 0
-2.04313e-05 -0.00170271 0
-2.5982e-05 -0.00065889 0
-1.87733e-05 -0.0017023 0
-3.20684e-05 -0.000658383 0
-2.15331e-05 -0.00170199 0
-1.95981e-05 -0.000658472 0
-1.18254e-05 -0.0017023 0
-2.5982e-05 -0.00065889 0
-1.87733e-05 -0.0017023 0
-1.20318e-05 -0.000657563 0
-4.45005e-06 -0.00170215 0
-1.95981e-05 -0.000658472 0
-1.18254e-05 -0.0017023 0
-3.73623e-06 -0.000656881 0
5.04361e-06 -0.00170241 0
-1.20318e-05 -0.000657563 0
-4.45005e-06 -0.00170215 0
5.66075e-06 -0.000655457 0
1.51139e-05 -0.00170269 0
-3.73623e-06 -0.000656881 0
5.04361e-06 -0.00170241 0
1.68459e-05 -0.000654719 0
2.60902e-05 -0.00170314 0
5.66075e-06 -0.000655457 0
1.51139e-05 -0.00170269 0
2.81331e-05 -0.000653153 0
3.79107e-05 -0.00170436 0
1.68459e-05 -0.000654719 0
2.60902e-05 -0.00170314 0
4.13685e-05 -0.000651908 0
4.87169e-05 -0.00170581 0
2.81331e-05 -0.000653153 0
3.79107e-05 -0.00170436 0
5.45098e-05 -0.000651126 0
6.04771e-05 -0.00170805 0
4.13685e-05 -0.000651908 0
4.87169e-05 -0.00170581 0
6.94955e-05 -0.000649905 0
7.13745e-05 -0.00171019 0
5.45098e-05 -0.000651126 0
6.04771e-05 -0.00170805 0
8.51857e-05 -0.00064917 0
7.79689e-05 -0.00171385 0
6.94955e-05 -0.000649905 0
7.13745e-05 -0.00171019 0
8.51857e-05 -0.00064917 0
9.70105e-05 -0.000649799 0
7.79689e-05 -0.00171385 0
8.44021e-05 -0.00171815 0
0.000107546 -0.000650144 0
8.71653e-05 -0.00172451 0
9.70105e-05 -0.000649799 0
8.44021e-05 -0.00171815 0
0.000112774 -0.000652852 0
8.79549e-05 -0.00172994 0
0.000107546 -0.000650144 0
8.71653e-05 -0.00172451 0
0.000109583 -0.00065555 0
9.18108e-05 -0.00173325 0
0.000112774 -0.000652852 0
8.79549e-05 -0.00172994 0
0.000107126 -0.000656777 0
9.32888e-05 -0.00173379 0
0.000109583 -0.00065555 0
9.18108e-05 -0.00173325 0
9.56505e-05 -0.000658853 0
9.03117e-05 -0.00173305 0
0.000107126 -0.000656777 0
9.32888e-05 -0.00173379 0
7.71595e-05 -0.000659495 0
8.32324e-05 -0.0017315 0
9.56505e-05 -0.000658853 0
9.03117e-05 -0.00173305 0
5.92752e-05 -0.000658582 0
7.10151e-05 -0.00172899 0
7.71595e-05 -0.000659495 0
8.32324e-05 -0.0017315 0
4.56404e-05 -0.000656785 0
5.41884e-05 -0.00172844 0
5.92752e-05 -0.000658582 0
7.10151e-05 -0.00172899 0
3.35421e-05 -0.00065685 0
3.68899e-05 -0.00172681 0
4.56404e-05 -0.000656785 0
5.41884e-05 -0.00172844 0
2.00002e-05 -0.000656635 0
2.43181e-05 -0.00172928 0
3.35421e-05 -0.00065685 0
3.68899e-05 -0.00172681 0
9.09148e-06 -0.000656764 0
8.36868e-06 -0.00172937 0
2.00002e-05 -0.000656635 0
2.43181e-05 -0.00172928 0
3.63473e-06 -0.000658069 0
-3.54746e-06 -0.00172643 0
9.09148e-06 -0.000656764 0
8.36868e-06 -0.00172937 0
-1.22611e-05 -0.000661588 0
-1.79564e-05 -0.00172162 0
3.63473e-06 -0.000658069 0
-3.54746e-06 -0.00172643 0
-2.80748e-05 -0.000665766 0
-2.31542e-05 -0.00171527 0
-1.22611e-05 -0.000661588 0
-1.79564e-05 -0.00172162 0
-4.53923e-05 -0.000665053 0
-3.11834e-05 -0.00171382 0
-2.80748e-05 -0.000665766 0
-2.31542e-05 -0.00171527 0
-5.03238e-05 -0.000662683 0
-3.31524e-05 -0.00171385 0
-4.53923e-05 -0.000665053 0
-3.11834e-05 -0.00171382 0
-6.21053e-05 -0.000659057 0
-4.30904e-05 -0.00171705 0
-5.03238e-05 -0.000662683 0
-3.31524e-05 -0.00171385 0
-5.80133e-05 -0.000654452 0
-3.9675e-05 -0.00172043 0
-6.21053e-05 -0.000659057 0
-4.30904e-05 -0.00171705 0
-6.61849e-05 -0.000649929 0
-5.37649e-05 -0.00172584 0
-5.80133e-05 -0.000654452 0
-3.9675e-05 -0.00172043 0
-5.12055e-05 -0.000648355 0
-4.69099e-05 -0.0017256 0
-6.61849e-05 -0.000649929 0
-5.37649e-05 -0.00172584 0
-6.50238e-05 -0.000648003 0
-6.27249e-05 -0.00172846 0
-5.12055e-05 -0.000648355 0
-4.69099e-05 -0.0017256 0
-4.44521e-05 -0.000647344 0
-4.83708e-05 -0.00172225 0
-6.50238e-05 -0.000648003 0
-6.27249e-05 -0.00172846 0
-7.80991e-05 -0.000648026 0
-9.26577e-05 -0.00171616 0
-4.44521e-05 -0.000647344 0
-4.83708e-05 -0.00172225 0
-8.7106e-05 -0.000649709 0
-0.000104519 -0.00169164 0
-7.80991e-05 -0.000648026 0
-9.26577e-05 -0.00171616 0
-0.000211892 -0.000652526 0
-0.000221401 -0.00166108 0
-8.7106e-05 -0.000649709 0
-0.000104519 -0.00169164 0
-0.000303054 -0.000654861 0
-0.000307958 -0.00159439 0
-0.000211892 -0.000652526 0
-0.000221401 -0.00166108 0
-0.000303054 -0.000654861 0
-0.000609351 -0.000657513 0
-0.000307958 -0.00159439 0
-0.000584665 -0.00151364 0
-0.000893611 -0.000650789 0
-0.000834633 -0.00136797 0
-0.000609351 -0.000657513 0
-0.000584665 -0.00151364 0
-0.00155883 -0.000641266 0
-0.00144135 -0.00118437 0
-0.000893611 -0.000650789 0
-0.000834633 -0.00136797 0
-0.00224283 -0.000620795 0
-0.00209125 -0.000842111 0
-0.00155883 -0.000641266 0
-0.00144135 -0.00118437 0
-0.00364322 -0.000599358 0
-0.00342156 -0.000429654 0
-0.00224283 -0.000620795 0
-0.00209125 -0.000842111 0
-0.00519911 -0.000561569 0
-0.00495199 0.000283999 0
-0.00364322 -0.000599358 0
-0.00342156 -0.000429654 0
-0.00519911 -0.000561569 0
-0.00809657 -0.0005228 0
-0.00495199 0.000283999 0
-0.00775398 0.00113416 0
-0.00809657 -0.0005228 0
-0.0114737 -0.000463221 0
-0.00775398 0.00113416 0
-0.0111389 0.00258132 0
-0.0173544 -0.000417405 0
-0.0168479 0.00423132 0
-0.0114737 -0.000463221 0
-0.0111389 0.00258132 0
-0.0243717 -0.000322443 0
-0.0239135 0.00700567 0
-0.0173544 -0.000417405 0
-0.0168479 0.00423132 0
-0.0358946 -0.00026514 0
-0.0350409 0.00999352 0
-0.0243717 -0.000322443 0
-0.0239135 0.00700567 0
-0.0495268 -8.3082e-05 0
-0.048904 0.0148169 0
-0.0358946 -0.00026514 0
-0.0350409 0.00999352 0
-0.0708679 -4.83561e-05 0
-0.0694647 0.0196298 0
-0.0495268 -8.3082e-05 0
-0.048904 0.0148169 0
-0.0956604 0.000286575 0
-0.0950136 0.0281566 0
-0.0708679 -4.83561e-05 0
-0.0694647 0.0196298 0
-0.13414 0.000283288 0
-0.130987 0.0354498 0
-0.0956604 0.000286575 0
-0.0950136 0.0281566 0
-0.176648 0.00135197 0
-0.176131 0.0506345 0
-0.13414 0.000283288 0
-0.130987 0.0354498 0
-0.242533 0.00170472 0
-0.234301 0.0523344 0
-0.176648 0.00135197 0
-0.176131 0.0506345 0
-0.276089 6.88693e-05 0
-0.299075 0.0298324 0
-0.242533 0.00170472 0
-0.234301 0.0523344 0
-0.0657317 -0.0039826 0
-0.0496529 -0.0342523 0
-0.125453 -0.00223867 0
-0.103508 -0.0787927 0
5.18712e-07 -0.00038949 0
-2.81491e-05 -0.000843132 0
9.61026e-06 -0.000379205 0
-1.98096e-05 -0.000845184 0
5.18712e-07 -0.00038949 0
-1.57783e-05 -0.000397232 0
-2.81491e-05 -0.000843132 0
-3.01132e-05 -0.000842124 0
-2.82868e-05 -0.000400743 0
-3.81864e-05 -0.000842046 0
-1.57783e-05 -0.000397232 0
-3.01132e-05 -0.000842124 0
-2.82868e-05 -0.000400743 0
-3.40171e-05 -0.000404582 0
-3.81864e-05 -0.000842046 0
-4.66895e-05 -0.000841195 0
-3.40171e-05 -0.000404582 0
-4.09647e-05 -0.000407153 0
-4.66895e-05 -0.000841195 0
-5.31181e-05 -0.000842587 0
-4.09647e-05 -0.000407153 0
-4.87109e-05 -0.000409392 0
-5.31181e-05 -0.000842587 0
-5.82599e-05 -0.000844827 0
-4.87109e-05 -0.000409392 0
-5.47237e-05 -0.000409684 0
-5.82599e-05 -0.000844827 0
-6.63288e-05 -0.000848529 0
-5.47237e-05 -0.000409684 0
-6.11274e-05 -0.000412156 0
-6.63288e-05 -0.000848529 0
-7.53951e-05 -0.000851331 0
-6.11274e-05 -0.000412156 0
-6.93737e-05 -0.000414276 0
-7.53951e-05 -0.000851331 0
-8.07452e-05 -0.000853685 0
-6.93737e-05 -0.000414276 0
-7.69635e-05 -0.000416283 0
-8.07452e-05 -0.000853685 0
-8.50062e-05 -0.000855867 0
-7.69635e-05 -0.000416283 0
-8.19478e-05 -0.000417351 0
-8.50062e-05 -0.000855867 0
-8.72396e-05 -0.000857402 0
-8.19478e-05 -0.000417351 0
-8.50513e-05 -0.000418492 0
-8.72396e-05 -0.000857402 0
-8.81627e-05 -0.000858582 0
-8.50513e-05 -0.000418492 0
-8.53164e-05 -0.000418801 0
-8.81627e-05 -0.000858582 0
-8.6202e-05 -0.00085942 0
-8.53164e-05 -0.000418801 0
-8.39886e-05 -0.000419135 0
-8.6202e-05 -0.00085942 0
-8.37776e-05 -0.000860305 0
-8.39886e-05 -0.000419135 0
-7.96297e-05 -0.000419242 0
-8.37776e-05 -0.000860305 0
-7.9609e-05 -0.000861576 0
-7.96297e-05 -0.000419242 0
-7.28697e-05 -0.000419453 0
-7.9609e-05 -0.000861576 0
-7.63376e-05 -0.000863592 0
-7.28697e-05 -0.000419453 0
-6.65136e-05 -0.000420165 0
-7.63376e-05 -0.000863592 0
-7.18856e-05 -0.000865131 0
-6.65136e-05 -0.000420165 0
-6.16968e-05 -0.000421062 0
-7.18856e-05 -0.000865131 0
-6.65363e-05 -0.000867373 0
-6.16968e-05 -0.000421062 0
-5.66068e-05 -0.00042201 0
-6.65363e-05 -0.000867373 0
-6.0675e-05 -0.000869758 0
-5.66068e-05 -0.00042201 0
-5.3793e-05 -0.000422776 0
-6.0675e-05 -0.000869758 0
-5.63345e-05 -0.00087212 0
-5.3793e-05 -0.000422776 0
-4.97349e-05 -0.000423086 0
-5.63345e-05 -0.00087212 0
-5.17938e-05 -0.000874615 0
-4.97349e-05 -0.000423086 0
-4.64242e-05 -0.000423578 0
-5.17938e-05 -0.000874615 0
-4.84239e-05 -0.000876559 0
-4.64242e-05 -0.000423578 0
-4.16069e-05 -0.000423646 0
-4.84239e-05 -0.000876559 0
-4.37131e-05 -0.000878115 0
-4.16069e-05 -0.000423646 0
-3.81425e-05 -0.000423639 0
-4.37131e-05 -0.000878115 0
-4.09389e-05 -0.000878897 0
0.274767 -0.265074 0
0.163445 -0.156645 0
0.2943 -0.0993928 0
0.190785 -0.0855122 0
0.11115 -0.109704 0
0.130784 -0.0733315 0
0.163445 -0.156645 0
0.190785 -0.0855122 0
0.082633 -0.0820974 0
0.0951974 -0.0605878 0
0.11115 -0.109704 0
0.130784 -0.0733315 0
0.082633 -0.0820974 0
0.0639954 -0.0638208 0
0.0951974 -0.0605878 0
0.0719079 -0.0503452 0
0.0639954 -0.0638208 0
0.0507966 -0.0509062 0
0.0719079 -0.0503452 0
0.0559596 -0.0417674 0
0.0407684 -0.0409725 0
0.0440543 -0.0347061 0
0.0507966 -0.0509062 0
0.0559596 -0.0417674 0
0.0407684 -0.0409725 0
0.0327544 -0.0330784 0
0.0440543 -0.0347061 0
0.0348807 -0.0285957 0
0.0327544 -0.0330784 0
0.0262226 -0.0265872 0
0.0348807 -0.0285957 0
0.0275051 -0.0234289 0
0.0262226 -0.0265872 0
0.0207585 -0.0211694 0
0.0275051 -0.0234289 0
0.0214745 -0.0189015 0
0.0207585 -0.0211694 0
0.0162717 -0.0167021 0
0.0214745 -0.0189015 0
0.0165708 -0.0151105 0
0.0125425 -0.012992 0
0.0125593 -0.0118642 0
0.0162717 -0.0167021 0
0.0165708 -0.0151105 0
0.00956894 -0.0100324 0
0.00938565 -0.00925193 0
0.0125425 -0.012992 0
0.0125593 -0.0118642 0
0.00956894 -0.0100324 0
0.0071777 -0.007651 0
0.00938565 -0.00925193 0
0.00686392 -0.00711638 0
0.0071777 -0.007651 0
0.00535985 -0.00583901 0
0.00686392 -0.00711638 0
0.0049582 -0.00547866 0
0.00535985 -0.00583901 0
0.00395458 -0.00443524 0
0.0049582 -0.00547866 0
0.00349698 -0.00420121 0
0.00395458 -0.00443524 0
0.00294228 -0.00342158 0
0.00349698 -0.00420121 0
0.00244541 -0.00327148 0
0.00294228 -0.00342158 0
0.0021841 -0.00266142 0
0.00244541 -0.00327148 0
0.00166537 -0.00257263 0
0.0021841 -0.00266142 0
0.00167292 -0.00214558 0
0.00166537 -0.00257263 0
0.00113861 -0.00209077 0
0.00167292 -0.00214558 0
0.00128953 -0.00176116 0
0.00113861 -0.00209077 0
0.000749346 -0.00174047 0
0.00105426 -0.00151288 0
0.000510355 -0.00152039 0
0.00128953 -0.00176116 0
0.000749346 -0.00174047 0
0.000869672 -0.00131934 0
0.000300593 -0.0013469 0
0.00105426 -0.00151288 0
0.000510355 -0.00152039 0
0.000869672 -0.00131934 0
0.000772945 -0.00122405 0
0.000300593 -0.0013469 0
0.000199706 -0.00123954 0
0.00066702 -0.00113156 0
9.60115e-05 -0.00113479 0
0.000772945 -0.00122405 0
0.000199706 -0.00123954 0
0.000626723 -0.00111937 0
0.000112927 -0.00109281 0
0.00066702 -0.00113156 0
9.60115e-05 -0.00113479 0
0.000626723 -0.00111937 0
0.000541831 -0.001035 0
0.000112927 -0.00109281 0
5.76746e-05 -0.00106272 0
0.000581269 -0.00105918 0
8.65202e-05 -0.00110003 0
0.000541831 -0.001035 0
5.76746e-05 -0.00106272 0
0.000581269 -0.00105918 0
0.000552018 -0.00102972 0
8.65202e-05 -0.00110003 0
1.85578e-05 -0.00106331 0
0.000552018 -0.00102972 0
0.000617877 -0.0011131 0
1.85578e-05 -0.00106331 0
0.000141856 -0.00113182 0
0.000617877 -0.0011131 0
0.000513504 -0.0010106 0
0.000141856 -0.00113182 0
9.06563e-05 -0.000987233 0
0.000513504 -0.0010106 0
0.000395909 -0.000863705 0
9.06563e-05 -0.000987233 0
0.000346075 -0.00118219 0
0.000395909 -0.000863705 0
0.000294092 -0.000608377 0
0.000346075 -0.00118219 0
0.00015269 -0.000598764 0
0.000294092 -0.000608377 0
0.000152545 -0.000465498 0
0.00015269 -0.000598764 0
7.20193e-05 -0.000930027 0
0.000152545 -0.000465498 0
0.000358647 -0.000283903 0
7.20193e-05 -0.000930027 0
0.000239147 -0.00075715 0
0.000358647 -0.000283903 0
0.000275365 -0.000370258 0
0.000239147 -0.00075715 0
-0.000148597 -0.000849421 0
0.000275365 -0.000370258 0
0.000186635 -0.000447063 0
-0.000148597 -0.000849421 0
0.000113351 -0.000795851 0
0.000186635 -0.000447063 0
-7.57927e-05 -0.000400264 0
0.000113351 -0.000795851 0
-1.56626e-05 -0.000909736 0
-4.37131e-05 -0.000878115 0
-4.09389e-05 -0.000878897 0
-4.58437e-05 -0.000504827 0
-4.36998e-05 -0.000508153 0
-4.58437e-05 -0.000504827 0
-4.36998e-05 -0.000508153 0
-5.05134e-05 -0.000854822 0
-4.9013e-05 -0.00085743 0
-5.05134e-05 -0.000854822 0
-4.9013e-05 -0.00085743 0
-5.68016e-05 -0.000580346 0
-5.46543e-05 -0.000584174 0
-5.68016e-05 -0.000580346 0
-5.46543e-05 -0.000584174 0
-6.32694e-05 -0.000848329 0
-6.31816e-05 -0.000853068 0
-6.32694e-05 -0.000848329 0
-6.31816e-05 -0.000853068 0
-7.2066e-05 -0.00065227 0
-7.1079e-05 -0.000657334 0
-7.2066e-05 -0.00065227 0
-7.1079e-05 -0.000657334 0
-8.02781e-05 -0.000859867 0
-8.05437e-05 -0.0008661 0
-9.1273e-05 -0.000728631 0
-8.02781e-05 -0.000859867 0
-9.07232e-05 -0.000735644 0
-8.05437e-05 -0.0008661 0
-9.1273e-05 -0.000728631 0
-9.07232e-05 -0.000735644 0
-0.000102935 -0.000892468 0
-0.000102513 -0.000900571 0
-0.000102935 -0.000892468 0
-0.000102513 -0.000900571 0
-0.000117403 -0.000814708 0
-0.000116397 -0.000824539 0
-0.000117403 -0.000814708 0
-0.000116397 -0.000824539 0
-0.000134859 -0.00094377 0
-0.000134155 -0.000955206 0
-0.000134859 -0.00094377 0
-0.000134155 -0.000955206 0
-0.000156118 -0.000906781 0
-0.000156023 -0.000920993 0
-0.000156118 -0.000906781 0
-0.000156023 -0.000920993 0
-0.000183064 -0.0010013 0
-0.000186699 -0.00101844 0
-0.000183064 -0.0010013 0
-0.000186699 -0.00101844 0
-0.000214942 -0.000991331 0
-0.000224391 -0.00101159 0
-0.000214942 -0.000991331 0
-0.000224391 -0.00101159 0
-0.000252811 -0.00104669 0
-0.000273162 -0.00107008 0
-0.000252811 -0.00104669 0
-0.000273162 -0.00107008 0
-0.000292875 -0.0010529 0
-0.000328342 -0.00107737 0
-0.000292875 -0.0010529 0
-0.000328342 -0.00107737 0
-0.000331699 -0.00106303 0
-0.000386109 -0.00108599 0
-0.000331699 -0.00106303 0
-0.000386109 -0.00108599 0
-0.000360388 -0.00108064 0
-0.000433736 -0.00109677 0
-0.000360388 -0.00108064 0
-0.000433736 -0.00109677 0
-0.000371152 -0.00104323 0
-0.000456882 -0.00104779 0
-0.000371152 -0.00104323 0
-0.000456882 -0.00104779 0
-0.00035801 -0.0010854 0
-0.000442498 -0.00107495 0
-0.00035801 -0.0010854 0
-0.000442498 -0.00107495 0
-0.000322215 -0.00101207 0
-0.000392094 -0.000990728 0
-0.000322215 -0.00101207 0
-0.000392094 -0.000990728 0
-0.000272551 -0.00110695 0
-0.000322116 -0.00107896 0
-0.000272551 -0.00110695 0
-0.000322116 -0.00107896 0
-0.00021663 -0.000996531 0
-0.00024671 -0.0009686 0
-0.00021663 -0.000996531 0
-0.00024671 -0.0009686 0
-0.000166876 -0.00115781 0
-0.000181443 -0.00113171 0
-0.000166876 -0.00115781 0
-0.000181443 -0.00113171 0
-0.000119345 -0.000982709 0
-0.000123968 -0.000963186 0
-0.000119345 -0.000982709 0
-0.000123968 -0.000963186 0
-9.07339e-05 -0.00122703 0
-9.1908e-05 -0.00121015 0
-9.07339e-05 -0.00122703 0
-9.1908e-05 -0.00121015 0
-5.92778e-05 -0.000956104 0
-5.70588e-05 -0.000943071 0
-5.92778e-05 -0.000956104 0
-5.70588e-05 -0.000943071 0
-4.29167e-05 -0.00133418 0
-4.20707e-05 -0.00132398 0
-4.29167e-05 -0.00133418 0
-4.20707e-05 -0.00132398 0
-2.1263e-05 -0.000914788 0
-1.85897e-05 -0.000908853 0
-2.1263e-05 -0.000914788 0
-1.85897e-05 -0.000908853 0
-2.13454e-05 -0.00148938 0
-2.02009e-05 -0.00148775 0
-2.13454e-05 -0.00148938 0
-2.02009e-05 -0.00148775 0
-1.77251e-05 -0.000831134 0
-1.73959e-05 -0.000829772 0
-1.77251e-05 -0.000831134 0
-1.73959e-05 -0.000829772 0
-2.15331e-05 -0.00170199 0
-2.04313e-05 -0.00170271 0
0.2943 -0.0993928 0
0.190785 -0.0855122 0
0.233367 0.0278669 0
0.177054 -0.00776964 0
0.130784 -0.0733315 0
0.128328 -0.0253448 0
0.190785 -0.0855122 0
0.177054 -0.00776964 0
0.0951974 -0.0605878 0
0.0969284 -0.03152 0
0.130784 -0.0733315 0
0.128328 -0.0253448 0
0.0951974 -0.0605878 0
0.0719079 -0.0503452 0
0.0969284 -0.03152 0
0.0738956 -0.0309647 0
0.0719079 -0.0503452 0
0.0559596 -0.0417674 0
0.0738956 -0.0309647 0
0.0579839 -0.0288686 0
0.0440543 -0.0347061 0
0.0455492 -0.0254716 0
0.0559596 -0.0417674 0
0.0579839 -0.0288686 0
0.0440543 -0.0347061 0
0.0348807 -0.0285957 0
0.0455492 -0.0254716 0
0.036043 -0.0220251 0
0.0348807 -0.0285957 0
0.0275051 -0.0234289 0
0.036043 -0.0220251 0
0.0282833 -0.018509 0
0.0275051 -0.0234289 0
0.0214745 -0.0189015 0
0.0282833 -0.018509 0
0.0220427 -0.0152616 0
0.0214745 -0.0189015 0
0.0165708 -0.0151105 0
0.0220427 -0.0152616 0
0.0169374 -0.0123165 0
0.0125593 -0.0118642 0
0.0128116 -0.00974955 0
0.0165708 -0.0151105 0
0.0169374 -0.0123165 0
0.00938565 -0.00925193 0
0.00953123 -0.00761454 0
0.0125593 -0.0118642 0
0.0128116 -0.00974955 0
0.00938565 -0.00925193 0
0.00686392 -0.00711638 0
0.00953123 -0.00761454 0
0.00694611 -0.00583973 0
0.00686392 -0.00711638 0
0.0049582 -0.00547866 0
0.00694611 -0.00583973 0
0.00498399 -0.00445405 0
0.0049582 -0.00547866 0
0.00349698 -0.00420121 0
0.00498399 -0.00445405 0
0.00349736 -0.0033585 0
0.00349698 -0.00420121 0
0.00244541 -0.00327148 0
0.00349736 -0.0033585 0
0.00242764 -0.002551 0
0.00244541 -0.00327148 0
0.00166537 -0.00257263 0
0.00242764 -0.002551 0
0.00164008 -0.00194624 0
0.00166537 -0.00257263 0
0.00113861 -0.00209077 0
0.00164008 -0.00194624 0
0.00109787 -0.00152621 0
0.00113861 -0.00209077 0
0.000749346 -0.00174047 0
0.00109787 -0.00152621 0
0.000704125 -0.00122024 0
0.000510355 -0.00152039 0
0.000468028 -0.000999015 0
0.000749346 -0.00174047 0
0.000704125 -0.00122024 0
0.000300593 -0.0013469 0
0.000298599 -0.000850804 0
0.000510355 -0.00152039 0
0.000468028 -0.000999015 0
0.000300593 -0.0013469 0
0.000199706 -0.00123954 0
0.000298599 -0.000850804 0
0.000214159 -0.000753863 0