# vtk DataFile Version 3.0
#This file was generated by the deal.II library on 2016/12/20 at 10:57:01
ASCII
DATASET UNSTRUCTURED_GRID

POINTS 7408 double
-1 0.5 0
-0.978723 0.478723 0
-0.970149 0.5 0
-0.964976 0.485465 0
0.12 -0.5 0
0.15 -0.5 0
0.119014 -0.4708 0
0.15 -0.471429 0
0.11755 -0.441479 0
0.119014 -0.4708 0
0.15 -0.442857 0
0.15 -0.471429 0
0.117242 -0.412206 0
0.11755 -0.441479 0
0.15 -0.414286 0
0.15 -0.442857 0
0.118129 -0.383064 0
0.117242 -0.412206 0
0.15 -0.385714 0
0.15 -0.414286 0
0.12021 -0.354337 0
0.118129 -0.383064 0
0.15 -0.357143 0
0.15 -0.385714 0
0.121793 -0.32584 0
0.12021 -0.354337 0
0.15 -0.328571 0
0.15 -0.357143 0
0.122717 -0.296869 0
0.121793 -0.32584 0
0.15 -0.3 0
0.15 -0.328571 0
0.123759 -0.266752 0
0.122717 -0.296869 0
0.153091 -0.267708 0
0.15 -0.3 0
0.18456 -0.26795 0
0.153091 -0.267708 0
0.183333 -0.3 0
0.15 -0.3 0
0.216606 -0.268111 0
0.18456 -0.26795 0
0.216667 -0.3 0
0.183333 -0.3 0
0.24835 -0.26841 0
0.216606 -0.268111 0
0.25 -0.3 0
0.216667 -0.3 0
0.278782 -0.268564 0
0.24835 -0.26841 0
0.279437 -0.298917 0
0.25 -0.3 0
0.279638 -0.328111 0
0.279437 -0.298917 0
0.25 -0.328571 0
0.25 -0.3 0
0.27971 -0.356801 0
0.279638 -0.328111 0
0.25 -0.357143 0
0.25 -0.328571 0
0.279677 -0.385395 0
0.27971 -0.356801 0
0.25 -0.385714 0
0.25 -0.357143 0
0.279641 -0.413938 0
0.279677 -0.385395 0
0.25 -0.414286 0
0.25 -0.385714 0
0.279666 -0.442534 0
0.279641 -0.413938 0
0.25 -0.442857 0
0.25 -0.414286 0
0.279811 -0.471266 0
0.279666 -0.442534 0
0.25 -0.471429 0
0.25 -0.442857 0
0.28 -0.5 0
0.279811 -0.471266 0
0.25 -0.5 0
0.25 -0.471429 0
0.970149 0.5 0
0.970096 0.46978 0
1 0.5 0
1 0.469697 0
0.940299 0.5 0
0.940231 0.46984 0
0.970149 0.5 0
0.970096 0.46978 0
0.910448 0.5 0
0.910371 0.469856 0
0.940299 0.5 0
0.940231 0.46984 0
0.880597 0.5 0
0.880527 0.469909 0
0.910448 0.5 0
0.910371 0.469856 0
0.850746 0.5 0
0.850684 0.469926 0
0.880597 0.5 0
0.880527 0.469909 0
0.820896 0.5 0
0.820842 0.469978 0
0.850746 0.5 0
0.850684 0.469926 0
0.791045 0.5 0
0.791001 0.470016 0
0.820896 0.5 0
0.820842 0.469978 0
0.761194 0.5 0
0.761159 0.470055 0
0.791045 0.5 0
0.791001 0.470016 0
0.731343 0.5 0
0.731316 0.470091 0
0.761194 0.5 0
0.761159 0.470055 0
0.701493 0.5 0
0.701472 0.470118 0
0.731343 0.5 0
0.731316 0.470091 0
0.671642 0.5 0
0.671627 0.470134 0
0.701493 0.5 0
0.701472 0.470118 0
0.641791 0.5 0
0.64178 0.470142 0
0.671642 0.5 0
0.671627 0.470134 0
0.641791 0.5 0
0.61194 0.5 0
0.64178 0.470142 0
0.611934 0.470065 0
0.58209 0.5 0
0.582089 0.470002 0
0.61194 0.5 0
0.611934 0.470065 0
0.552239 0.5 0
0.552248 0.469853 0
0.58209 0.5 0
0.582089 0.470002 0
0.522388 0.5 0
0.522413 0.469718 0
0.552239 0.5 0
0.552248 0.469853 0
0.492537 0.5 0
0.492577 0.469656 0
0.522388 0.5 0
0.522413 0.469718 0
0.462687 0.5 0
0.462743 0.469571 0
0.492537 0.5 0
0.492577 0.469656 0
0.432836 0.5 0
0.432895 0.46963 0
0.462687 0.5 0
0.462743 0.469571 0
0.402985 0.5 0
0.403046 0.469669 0
0.432836 0.5 0
0.432895 0.46963 0
0.373134 0.5 0
0.373191 0.469745 0
0.402985 0.5 0
0.403046 0.469669 0
0.343284 0.5 0
0.343335 0.469723 0
0.373134 0.5 0
0.373191 0.469745 0
0.313433 0.5 0
0.313478 0.469741 0
0.343284 0.5 0
0.343335 0.469723 0
0.283582 0.5 0
0.283622 0.469783 0
0.313433 0.5 0
0.313478 0.469741 0
0.253731 0.5 0
0.253768 0.469742 0
0.283582 0.5 0
0.283622 0.469783 0
0.223881 0.5 0
0.223918 0.469737 0
0.253731 0.5 0
0.253768 0.469742 0
0.19403 0.5 0
0.194064 0.46981 0
0.223881 0.5 0
0.223918 0.469737 0
0.164179 0.5 0
0.16421 0.469881 0
0.19403 0.5 0
0.194064 0.46981 0
0.134328 0.5 0
0.134355 0.46994 0
0.164179 0.5 0
0.16421 0.469881 0
0.104478 0.5 0
0.1045 0.469997 0
0.134328 0.5 0
0.134355 0.46994 0
0.074627 0.5 0
0.074645 0.470051 0
0.104478 0.5 0
0.1045 0.469997 0
0.044776 0.5 0
0.04479 0.470093 0
0.074627 0.5 0
0.074645 0.470051 0
0.014925 0.5 0
0.014935 0.47012 0
0.044776 0.5 0
0.04479 0.470093 0
-0.014925 0.5 0
-0.014918 0.470135 0
0.014925 0.5 0
0.014935 0.47012 0
-0.044776 0.5 0
-0.044771 0.470143 0
-0.014925 0.5 0
-0.014918 0.470135 0
-0.074627 0.5 0
-0.074623 0.470146 0
-0.044776 0.5 0
-0.044771 0.470143 0
-0.104478 0.5 0
-0.104496 0.469979 0
-0.074627 0.5 0
-0.074623 0.470146 0
-0.134328 0.5 0
-0.134359 0.469935 0
-0.104478 0.5 0
-0.104496 0.469979 0
-0.164179 0.5 0
-0.164225 0.469839 0
-0.134328 0.5 0
-0.134359 0.469935 0
-0.164179 0.5 0
-0.19403 0.5 0
-0.164225 0.469839 0
-0.194083 0.469797 0
-0.223881 0.5 0
-0.22394 0.469753 0
-0.19403 0.5 0
-0.194083 0.469797 0
-0.253731 0.5 0
-0.253798 0.469819 0
-0.223881 0.5 0
-0.22394 0.469753 0
-0.283582 0.5 0
-0.283647 0.470019 0
-0.253731 0.5 0
-0.253798 0.469819 0
-0.313433 0.5 0
-0.313491 0.470151 0
-0.283582 0.5 0
-0.283647 0.470019 0
-0.343284 0.5 0
-0.343348 0.470381 0
-0.313433 0.5 0
-0.313491 0.470151 0
-0.343284 0.5 0
-0.373134 0.5 0
-0.343348 0.470381 0
-0.373195 0.470395 0
-0.373134 0.5 0
-0.402985 0.5 0
-0.373195 0.470395 0
-0.403049 0.470404 0
-0.432836 0.5 0
-0.432937 0.470297 0
-0.402985 0.5 0
-0.403049 0.470404 0
-0.462687 0.5 0
-0.462848 0.469995 0
-0.432836 0.5 0
-0.432937 0.470297 0
-0.492537 0.5 0
-0.492807 0.469765 0
-0.462687 0.5 0
-0.462848 0.469995 0
-0.522388 0.5 0
-0.52276 0.46958 0
-0.492537 0.5 0
-0.492807 0.469765 0
-0.552239 0.5 0
-0.55273 0.469652 0
-0.522388 0.5 0
-0.52276 0.46958 0
-0.58209 0.5 0
-0.582662 0.469731 0
-0.552239 0.5 0
-0.55273 0.469652 0
-0.61194 0.5 0
-0.612594 0.469999 0
-0.58209 0.5 0
-0.582662 0.469731 0
-0.641791 0.5 0
-0.642647 0.470419 0
-0.61194 0.5 0
-0.612594 0.469999 0
-0.671642 0.5 0
-0.672638 0.470543 0
-0.641791 0.5 0
-0.642647 0.470419 0
-0.701493 0.5 0
-0.702968 0.4698 0
-0.671642 0.5 0
-0.672638 0.470543 0
-0.701493 0.5 0
-0.731343 0.5 0
-0.702968 0.4698 0
-0.733232 0.468149 0
-0.731343 0.5 0
-0.761194 0.5 0
-0.733232 0.468149 0
-0.765399 0.466448 0
-0.820896 0.5 0
-0.822797 0.47207 0
-0.791045 0.5 0
-0.795702 0.469563 0
0.31 -0.5 0
0.309694 -0.471123 0
0.28 -0.5 0
0.279811 -0.471266 0
0.31 -0.5 0
0.34 -0.5 0
0.309694 -0.471123 0
0.339686 -0.471033 0
0.37 -0.5 0
0.369721 -0.471055 0
0.34 -0.5 0
0.339686 -0.471033 0
0.37 -0.5 0
0.4 -0.5 0
0.369721 -0.471055 0
0.399756 -0.470957 0
0.4 -0.5 0
0.43 -0.5 0
0.399756 -0.470957 0
0.429805 -0.470822 0
0.43 -0.5 0
0.46 -0.5 0
0.429805 -0.470822 0
0.459835 -0.470712 0
0.46 -0.5 0
0.49 -0.5 0
0.459835 -0.470712 0
0.489873 -0.470554 0
0.49 -0.5 0
0.52 -0.5 0
0.489873 -0.470554 0
0.519906 -0.470379 0
0.52 -0.5 0
0.55 -0.5 0
0.519906 -0.470379 0
0.54993 -0.470248 0
0.55 -0.5 0
0.58 -0.5 0
0.54993 -0.470248 0
0.579948 -0.470155 0
0.58 -0.5 0
0.61 -0.5 0
0.579948 -0.470155 0
0.609962 -0.470091 0
0.61 -0.5 0
0.64 -0.5 0
0.609962 -0.470091 0
0.639972 -0.47005 0
0.64 -0.5 0
0.67 -0.5 0
0.639972 -0.47005 0
0.66998 -0.470026 0
0.67 -0.5 0
0.7 -0.5 0
0.66998 -0.470026 0
0.699986 -0.470013 0
0.7 -0.5 0
0.73 -0.5 0
0.699986 -0.470013 0
0.72999 -0.470006 0
0.73 -0.5 0
0.76 -0.5 0
0.72999 -0.470006 0
0.759994 -0.470003 0
0.76 -0.5 0
0.79 -0.5 0
0.759994 -0.470003 0
0.78998 -0.469916 0
0.79 -0.5 0
0.82 -0.5 0
0.78998 -0.469916 0
0.819956 -0.469877 0
0.82 -0.5 0
0.85 -0.5 0
0.819956 -0.469877 0
0.849929 -0.469833 0
0.85 -0.5 0
0.88 -0.5 0
0.849929 -0.469833 0
0.879924 -0.469805 0
0.88 -0.5 0
0.91 -0.5 0
0.879924 -0.469805 0
0.909913 -0.469792 0
0.91 -0.5 0
0.94 -0.5 0
0.909913 -0.469792 0
0.939922 -0.469775 0
0.94 -0.5 0
0.97 -0.5 0
0.939922 -0.469775 0
0.969956 -0.46974 0
0.97 -0.5 0
1 -0.5 0
0.969956 -0.46974 0
1 -0.469697 0
-0.553191 0.053191 0
-0.53184 0.075023 0
-0.574468 0.074468 0
-0.553204 0.096309 0
-0.553191 0.053191 0
-0.531915 0.031915 0
-0.53184 0.075023 0
-0.510492 0.053733 0
-0.531915 0.031915 0
-0.510638 0.010638 0
-0.510492 0.053733 0
-0.489127 0.032461 0
-0.510638 0.010638 0
-0.489362 -0.010638 0
-0.489127 0.032461 0
-0.467791 0.011178 0
-0.489362 -0.010638 0
-0.468085 -0.031915 0
-0.467791 0.011178 0
-0.446536 -0.010172 0
-0.446809 -0.053191 0
-0.42524 -0.031466 0
-0.468085 -0.031915 0
-0.446536 -0.010172 0
-0.425532 -0.074468 0
-0.404012 -0.052824 0
-0.446809 -0.053191 0
-0.42524 -0.031466 0
-0.425532 -0.074468 0
-0.404255 -0.095745 0
-0.404012 -0.052824 0
-0.382783 -0.074175 0
-0.404255 -0.095745 0
-0.382979 -0.117021 0
-0.382783 -0.074175 0
-0.361545 -0.095511 0
-0.382979 -0.117021 0
-0.361702 -0.138298 0
-0.361545 -0.095511 0
-0.340288 -0.116831 0
-0.361702 -0.138298 0
-0.340426 -0.159574 0
-0.340288 -0.116831 0
-0.319034 -0.138159 0
-0.340426 -0.159574 0
-0.319149 -0.180851 0
-0.319034 -0.138159 0
-0.297766 -0.159484 0
-0.319149 -0.180851 0
-0.297872 -0.202128 0
-0.297766 -0.159484 0
-0.276489 -0.180797 0
-0.297872 -0.202128 0
-0.276596 -0.223404 0
-0.276489 -0.180797 0
-0.255087 -0.202105 0
-0.255319 -0.244681 0
-0.233674 -0.223466 0
-0.276596 -0.223404 0
-0.255087 -0.202105 0
-0.234043 -0.265957 0
-0.212119 -0.244916 0
-0.255319 -0.244681 0
-0.233674 -0.223466 0
-0.234043 -0.265957 0
-0.212766 -0.287234 0
-0.212119 -0.244916 0
-0.190657 -0.266392 0
-0.191489 -0.308511 0
-0.169261 -0.287934 0
-0.212766 -0.287234 0
-0.190657 -0.266392 0
-0.170213 -0.329787 0
-0.147854 -0.309624 0
-0.191489 -0.308511 0
-0.169261 -0.287934 0
-0.170213 -0.329787 0
-0.148936 -0.351064 0
-0.147854 -0.309624 0
-0.126431 -0.331364 0
-0.12766 -0.37234 0
-0.105256 -0.353368 0
-0.148936 -0.351064 0
-0.126431 -0.331364 0
-0.12766 -0.37234 0
-0.106383 -0.393617 0
-0.105256 -0.353368 0
-0.083924 -0.375263 0
-0.106383 -0.393617 0
-0.085106 -0.414894 0
-0.083924 -0.375263 0
-0.062097 -0.396824 0
-0.085106 -0.414894 0
-0.06383 -0.43617 0
-0.062097 -0.396824 0
-0.040132 -0.418076 0
-0.06383 -0.43617 0
-0.042553 -0.457447 0
-0.040132 -0.418076 0
-0.019646 -0.439891 0
-0.042553 -0.457447 0
-0.021277 -0.478723 0
-0.019646 -0.439891 0
-0.002475 -0.461393 0
-0.021277 -0.478723 0
0 -0.5 0
-0.002475 -0.461393 0
0.009599 -0.478226 0
0 -0.5 0
0.03 -0.5 0
0.009599 -0.478226 0
0.029922 -0.474701 0
0.03 -0.5 0
0.06 -0.5 0
0.029922 -0.474701 0
0.057397 -0.471689 0
0.06 -0.5 0
0.09 -0.5 0
0.057397 -0.471689 0
0.08796 -0.470463 0
0.09 -0.5 0
0.12 -0.5 0
0.08796 -0.470463 0
0.119014 -0.4708 0
[...]
POINT_DATA 7408
VECTORS momentum double
-0.00181661 0.000783828 0
-0.0175478 0.0165486 0
-0.0204216 0.000518004 0
-0.0288149 0.00819017 0
0.000249362 -0.000412364 0
8.6494e-05 -0.000420643 0
0.000309349 -0.00109082 0
7.28487e-05 -0.00102486 0
0.000144621 -0.00093927 0
0.000309349 -0.00109082 0
9.31435e-05 -0.000952798 0
7.28487e-05 -0.00102486 0
0.000317028 -0.00154379 0
0.000144621 -0.00093927 0
1.24868e-05 -0.0015939 0
9.31435e-05 -0.000952798 0
0.000473886 -0.00139802 0
0.000317028 -0.00154379 0
7.54529e-06 -0.00149394 0
1.24868e-05 -0.0015939 0
0.000551378 -0.00182285 0
0.000473886 -0.00139802 0
-1.1987e-05 -0.00172374 0
7.54529e-06 -0.00149394 0
0.000919692 -0.00153516 0
0.000551378 -0.00182285 0
-3.60017e-05 -0.00144 0
-1.1987e-05 -0.00172374 0
0.000911213 -0.00204476 0
0.000919692 -0.00153516 0
0.000422456 -0.000673648 0
-3.60017e-05 -0.00144 0
0.000864859 -0.00171111 0
0.000911213 -0.00204476 0
0.00049856 -0.00144749 0
0.000422456 -0.000673648 0
0.000640588 -0.00184767 0
0.00049856 -0.00144749 0
0.000902507 -0.000554792 0
0.000422456 -0.000673648 0
0.000778912 -0.00156444 0
0.000640588 -0.00184767 0
0.000633725 -0.000298876 0
0.000902507 -0.000554792 0
0.001227 -0.00153594 0
0.000778912 -0.00156444 0
0.000446989 -0.00103087 0
0.000633725 -0.000298876 0
0.000675374 -0.00140556 0
0.001227 -0.00153594 0
0.000254704 -0.00206711 0
0.000446989 -0.00103087 0
-0.000114159 -0.00124016 0
0.000254704 -0.00206711 0
-0.000201118 -0.00139178 0
0.000446989 -0.00103087 0
7.09166e-05 -0.00136729 0
-0.000114159 -0.00124016 0
5.80764e-05 -0.00119677 0
-0.000201118 -0.00139178 0
-1.11213e-05 -0.000877342 0
7.09166e-05 -0.00136729 0
-3.13168e-05 -0.000980471 0
5.80764e-05 -0.00119677 0
1.72693e-05 -0.00109015 0
-1.11213e-05 -0.000877342 0
1.41922e-05 -0.00103457 0
-3.13168e-05 -0.000980471 0
-1.42543e-05 -0.00062108 0
1.72693e-05 -0.00109015 0
-8.99742e-06 -0.000653748 0
1.41922e-05 -0.00103457 0
-1.27133e-05 -0.000925722 0
-1.42543e-05 -0.00062108 0
3.17028e-06 -0.000907403 0
-8.99742e-06 -0.000653748 0
-4.74419e-06 -0.000399141 0
-1.27133e-05 -0.000925722 0
-2.36548e-06 -0.000409376 0
3.17028e-06 -0.000907403 0
-0.000119907 -0.00065427 0
-0.000110462 -0.00175467 0
-0.000109979 -0.000654465 0
-9.77363e-05 -0.00175502 0
-0.000127723 -0.000654808 0
-0.000121448 -0.00175677 0
-0.000119907 -0.00065427 0
-0.000110462 -0.00175467 0
-0.000131214 -0.000654426 0
-0.000124616 -0.00175906 0
-0.000127723 -0.000654808 0
-0.000121448 -0.00175677 0
-0.000133138 -0.000653527 0
-0.00012709 -0.00176046 0
-0.000131214 -0.000654426 0
-0.000124616 -0.00175906 0
-0.000131182 -0.000652813 0
-0.000124289 -0.00176203 0
-0.000133138 -0.000653527 0
-0.00012709 -0.00176046 0
-0.000127233 -0.000651362 0
-0.000119956 -0.00176325 0
-0.000131182 -0.000652813 0
-0.000124289 -0.00176203 0
-0.000118524 -0.000650584 0
-0.000111732 -0.00176467 0
-0.000127233 -0.000651362 0
-0.000119956 -0.00176325 0
-0.000107924 -0.000648981 0
-0.000100991 -0.00176686 0
-0.000118524 -0.000650584 0
-0.000111732 -0.00176467 0
-9.22264e-05 -0.000647701 0
-8.82502e-05 -0.00176931 0
-0.000107924 -0.000648981 0
-0.000100991 -0.00176686 0
-7.46079e-05 -0.000646868 0
-7.25915e-05 -0.00177244 0
-9.22264e-05 -0.000647701 0
-8.82502e-05 -0.00176931 0
-5.26945e-05 -0.000645579 0
-5.5183e-05 -0.00177542 0
-7.46079e-05 -0.000646868 0
-7.25915e-05 -0.00177244 0
-2.88602e-05 -0.0006448 0
-4.06098e-05 -0.00177969 0
-5.26945e-05 -0.000645579 0
-5.5183e-05 -0.00177542 0
-2.88602e-05 -0.0006448 0
-7.67296e-06 -0.000645343 0
-4.06098e-05 -0.00177969 0
-2.47074e-05 -0.00178473 0
1.22818e-05 -0.000645644 0
-1.22094e-05 -0.00179163 0
-7.67296e-06 -0.000645343 0
-2.47074e-05 -0.00178473 0
2.70058e-05 -0.000648301 0
-1.67538e-06 -0.00179765 0
1.22818e-05 -0.000645644 0
-1.22094e-05 -0.00179163 0
3.2172e-05 -0.000650916 0
1.06476e-05 -0.00180103 0
2.70058e-05 -0.000648301 0
-1.67538e-06 -0.00179765 0
3.6402e-05 -0.000652077 0
1.8962e-05 -0.00180068 0
3.2172e-05 -0.000650916 0
1.06476e-05 -0.00180103 0
2.89503e-05 -0.000653999 0
2.02788e-05 -0.00179862 0
3.6402e-05 -0.000652077 0
1.8962e-05 -0.00180068 0
1.22714e-05 -0.000654517 0
1.55415e-05 -0.00179548 0
2.89503e-05 -0.000653999 0
2.02788e-05 -0.00179862 0
-4.56792e-06 -0.00065351 0
5.28099e-06 -0.00179217 0
1.22714e-05 -0.000654517 0
1.55415e-05 -0.00179548 0
-1.5405e-05 -0.00065164 0
-7.60001e-06 -0.00179123 0
-4.56792e-06 -0.00065351 0
5.28099e-06 -0.00179217 0
-1.90671e-05 -0.000651595 0
-1.51574e-05 -0.00178914 0
-1.5405e-05 -0.00065164 0
-7.60001e-06 -0.00179123 0
-1.61043e-05 -0.000651232 0
-9.75422e-06 -0.00178949 0
-1.90671e-05 -0.000651595 0
-1.51574e-05 -0.00178914 0
3.60886e-06 -0.000651143 0
6.79608e-06 -0.00178438 0
-1.61043e-05 -0.000651232 0
-9.75422e-06 -0.00178949 0
4.41726e-05 -0.000652036 0
4.37158e-05 -0.00177245 0
3.60886e-06 -0.000651143 0
6.79608e-06 -0.00178438 0
0.000100736 -0.000654957 0
0.000105841 -0.00175315 0
4.41726e-05 -0.000652036 0
4.37158e-05 -0.00177245 0
0.000183931 -0.000658255 0
0.000205394 -0.00172625 0
0.000100736 -0.000654957 0
0.000105841 -0.00175315 0
0.000311482 -0.000656322 0
0.000349809 -0.00169552 0
0.000183931 -0.000658255 0
0.000205394 -0.00172625 0
0.000490687 -0.0006523 0
0.000541703 -0.00165564 0
0.000311482 -0.000656322 0
0.000349809 -0.00169552 0
0.000729915 -0.000646476 0
0.000794553 -0.00160311 0
0.000490687 -0.0006523 0
0.000541703 -0.00165564 0
0.00102694 -0.00063917 0
0.00110513 -0.00153402 0
0.000729915 -0.000646476 0
0.000794553 -0.00160311 0
0.00139131 -0.000631461 0
0.00147968 -0.00144307 0
0.00102694 -0.00063917 0
0.00110513 -0.00153402 0
0.00179719 -0.00062617 0
0.00189659 -0.00132372 0
0.00139131 -0.000631461 0
0.00147968 -0.00144307 0
0.00224173 -0.00062121 0
0.00235951 -0.00117274 0
0.00179719 -0.00062617 0
0.00189659 -0.00132372 0
0.0026596 -0.000615187 0
0.00279408 -0.000982503 0
0.00224173 -0.00062121 0
0.00235951 -0.00117274 0
0.00302745 -0.00060962 0
0.00317192 -0.000743637 0
0.0026596 -0.000615187 0
0.00279408 -0.000982503 0
0.00318938 -0.00060397 0
0.00335631 -0.000447576 0
0.00302745 -0.00060962 0
0.00317192 -0.000743637 0
0.00311473 -0.000599167 0
0.00330517 -8.54125e-05 0
0.00318938 -0.00060397 0
0.00335631 -0.000447576 0
0.00257287 -0.00059342 0
0.002786 0.000340587 0
0.00311473 -0.000599167 0
0.00330517 -8.54125e-05 0
0.00257287 -0.00059342 0
0.00152388 -0.000587111 0
0.002786 0.000340587 0
0.0017678 0.000858681 0
-0.000363328 -0.00057054 0
-8.20982e-05 0.00144734 0
0.00152388 -0.000587111 0
0.0017678 0.000858681 0
-0.0030949 -0.000552172 0
-0.0027879 0.00219041 0
-0.000363328 -0.00057054 0
-8.20982e-05 0.00144734 0
-0.00713892 -0.000520563 0
-0.00682299 0.00304152 0
-0.0030949 -0.000552172 0
-0.0027879 0.00219041 0
-0.0124681 -0.000488779 0
-0.012165 0.00415215 0
-0.00713892 -0.000520563 0
-0.00682299 0.00304152 0
-0.0196751 -0.000436576 0
-0.0194138 0.0054068 0
-0.0124681 -0.000488779 0
-0.012165 0.00415215 0
-0.0196751 -0.000436576 0
-0.0286935 -0.000386269 0
-0.0194138 0.0054068 0
-0.0285309 0.00713779 0
-0.0286935 -0.000386269 0
-0.0402652 -0.000317493 0
-0.0285309 0.00713779 0
-0.0402029 0.00907523 0
-0.0542636 -0.000257856 0
-0.054427 0.0116872 0
-0.0402652 -0.000317493 0
-0.0402029 0.00907523 0
-0.0714951 -0.000179555 0
-0.0718142 0.0144844 0
-0.0542636 -0.000257856 0
-0.054427 0.0116872 0
-0.0916091 -0.000126163 0
-0.092414 0.0179686 0
-0.0714951 -0.000179555 0
-0.0718142 0.0144844 0
-0.115106 -8.54732e-05 0
-0.116167 0.0208582 0
-0.0916091 -0.000126163 0
-0.092414 0.0179686 0
-0.141246 -8.71201e-05 0
-0.143095 0.0244906 0
-0.115106 -8.54732e-05 0
-0.116167 0.0208582 0
-0.170688 -7.40173e-05 0
-0.172257 0.0269229 0
-0.141246 -8.71201e-05 0
-0.143095 0.0244906 0
-0.202616 4.35077e-06 0
-0.205616 0.0313952 0
-0.170688 -7.40173e-05 0
-0.172257 0.0269229 0
-0.23951 -0.000230052 0
-0.240064 0.0340326 0
-0.202616 4.35077e-06 0
-0.205616 0.0313952 0
-0.279711 0.000638307 0
-0.282271 0.0407962 0
-0.23951 -0.000230052 0
-0.240064 0.0340326 0
-0.32767 0.000763762 0
-0.323662 0.0403817 0
-0.279711 0.000638307 0
-0.282271 0.0407962 0
-0.32767 0.000763762 0
-0.364872 0.000385402 0
-0.323662 0.0403817 0
-0.373353 0.0297206 0
-0.364872 0.000385402 0
-0.38382 0.000317176 0
-0.373353 0.0297206 0
-0.401284 -0.00322132 0
-0.343513 -0.00164012 0
-0.333555 -0.0434024 0
-0.376341 -0.00146763 0
-0.377517 -0.0460724 0
-1.91989e-05 -0.000404466 0
-3.36643e-05 -0.000924748 0
-4.74419e-06 -0.000399141 0
-1.27133e-05 -0.000925722 0
-1.91989e-05 -0.000404466 0
-4.5201e-05 -0.000404183 0
-3.36643e-05 -0.000924748 0
-4.88776e-05 -0.000928725 0
-6.92297e-05 -0.000408167 0
-7.3821e-05 -0.000923433 0
-4.5201e-05 -0.000404183 0
-4.88776e-05 -0.000928725 0
-6.92297e-05 -0.000408167 0
-8.9328e-05 -0.000409079 0
-7.3821e-05 -0.000923433 0
-9.63677e-05 -0.000923909 0
-8.9328e-05 -0.000409079 0
-0.000108568 -0.000412758 0
-9.63677e-05 -0.000923909 0
-0.000117803 -0.000923302 0
-0.000108568 -0.000412758 0
-0.000128013 -0.000413769 0
-0.000117803 -0.000923302 0
-0.000134036 -0.000927542 0
-0.000128013 -0.000413769 0
-0.000142642 -0.000414799 0
-0.000134036 -0.000927542 0
-0.000152343 -0.000931655 0
-0.000142642 -0.000414799 0
-0.000156585 -0.000416765 0
-0.000152343 -0.000931655 0
-0.000168807 -0.00093682 0
-0.000156585 -0.000416765 0
-0.000170639 -0.00041934 0
-0.000168807 -0.00093682 0
-0.000180955 -0.00094053 0
-0.000170639 -0.00041934 0
-0.000183969 -0.00042114 0
-0.000180955 -0.00094053 0
-0.000190855 -0.000944973 0
-0.000183969 -0.00042114 0
-0.000194361 -0.000422467 0
-0.000190855 -0.000944973 0
-0.000198904 -0.000948271 0
-0.000194361 -0.000422467 0
-0.000203595 -0.000423546 0
-0.000198904 -0.000948271 0
-0.000205747 -0.000951584 0
-0.000203595 -0.000423546 0
-0.000210366 -0.000424012 0
-0.000205747 -0.000951584 0
-0.00021027 -0.000954249 0
-0.000210366 -0.000424012 0
-0.000216373 -0.000424342 0
-0.00021027 -0.000954249 0
-0.000214873 -0.000957037 0
-0.000216373 -0.000424342 0
-0.000219568 -0.000424555 0
-0.000214873 -0.000957037 0
-0.000218139 -0.000959911 0
-0.000219568 -0.000424555 0
-0.000220759 -0.000424765 0
-0.000218139 -0.000959911 0
-0.00022266 -0.000963402 0
-0.000220759 -0.000424765 0
-0.000222065 -0.00042556 0
-0.00022266 -0.000963402 0
-0.000225825 -0.000966392 0
-0.000222065 -0.00042556 0
-0.000224637 -0.000426481 0
-0.000225825 -0.000966392 0
-0.000227725 -0.000969907 0
-0.000224637 -0.000426481 0
-0.000225717 -0.00042749 0
-0.000227725 -0.000969907 0
-0.000227918 -0.000973571 0
-0.000225717 -0.00042749 0
-0.000227717 -0.000428293 0
-0.000227918 -0.000973571 0
-0.000228282 -0.000977185 0
-0.000227717 -0.000428293 0
-0.000226278 -0.000428647 0
-0.000228282 -0.000977185 0
-0.000226352 -0.000980856 0
-0.000226278 -0.000428647 0
-0.000223474 -0.000429169 0
-0.000226352 -0.000980856 0
-0.00022356 -0.000983872 0
-0.000223474 -0.000429169 0
-0.00021676 -0.000429262 0
-0.00022356 -0.000983872 0
-0.000217106 -0.000986102 0
-0.00021676 -0.000429262 0
-0.000209752 -0.000429245 0
-0.000217106 -0.000986102 0
-0.000210885 -0.000987066 0
0.133188 -0.128611 0
0.15285 -0.0867601 0
0.200503 -0.197769 0
0.226608 -0.089342 0
0.133188 -0.128611 0
0.0972566 -0.0971749 0
0.15285 -0.0867601 0
0.111351 -0.0709122 0
0.0972566 -0.0971749 0
0.0767901 -0.0763432 0
0.111351 -0.0709122 0
0.0859988 -0.060587 0
0.0767901 -0.0763432 0
0.0627289 -0.0628665 0
0.0859988 -0.060587 0
0.0690854 -0.0514283 0
0.0627289 -0.0628665 0
0.0530424 -0.0531529 0
0.0690854 -0.0514283 0
0.0574241 -0.0451293 0
0.0457724 -0.046039 0
0.0489156 -0.0398235 0
0.0530424 -0.0531529 0
0.0574241 -0.0451293 0
0.0402318 -0.0405209 0
0.0424651 -0.0357611 0
0.0457724 -0.046039 0
0.0489156 -0.0398235 0
0.0402318 -0.0405209 0
0.0357359 -0.0360846 0
0.0424651 -0.0357611 0
0.037345 -0.0322579 0
0.0357359 -0.0360846 0
0.0319921 -0.0323616 0
0.037345 -0.0322579 0
0.0331279 -0.0292735 0
0.0319921 -0.0323616 0
0.0287052 -0.0290964 0
0.0331279 -0.0292735 0
0.029485 -0.0265511 0
0.0287052 -0.0290964 0
0.0257624 -0.0261646 0
0.029485 -0.0265511 0
0.0262578 -0.024052 0
0.0257624 -0.0261646 0
0.0230278 -0.0234387 0
0.0262578 -0.024052 0
0.0232948 -0.0216638 0
0.0230278 -0.0234387 0
0.0204846 -0.0209021 0
0.0232948 -0.0216638 0
0.0205716 -0.0194077 0
0.0204846 -0.0209021 0
0.0180745 -0.018497 0
0.0205716 -0.0194077 0
0.018003 -0.0172397 0
0.0158399 -0.0162582 0
0.0156387 -0.0152033 0
0.0180745 -0.018497 0
0.018003 -0.0172397 0
0.013738 -0.0141529 0
0.0133918 -0.0132671 0
0.0158399 -0.0162582 0
0.0156387 -0.0152033 0
0.013738 -0.0141529 0
0.0118384 -0.012264 0
0.0133918 -0.0132671 0
0.0113905 -0.011492 0
0.0100726 -0.0105166 0
0.00954712 -0.00985163 0
0.0118384 -0.012264 0
0.0113905 -0.011492 0
0.00853554 -0.00901161 0
0.00799898 -0.00841555 0
0.0100726 -0.0105166 0
0.00954712 -0.00985163 0
0.00853554 -0.00901161 0
0.00712154 -0.00760073 0
0.00799898 -0.00841555 0
0.00655391 -0.00714142 0
0.00600694 -0.00647593 0
0.00538079 -0.00610231 0
0.00712154 -0.00760073 0
0.00655391 -0.00714142 0
0.00600694 -0.00647593 0
0.00497229 -0.0054479 0
0.00538079 -0.00610231 0
0.00429904 -0.00510629 0
0.00497229 -0.0054479 0
0.00416737 -0.00465523 0
0.00429904 -0.00510629 0
0.0035453 -0.00434129 0
0.00416737 -0.00465523 0
0.00329183 -0.00378659 0
0.0035453 -0.00434129 0
0.00275878 -0.00341797 0
0.00329183 -0.00378659 0
0.00246659 -0.00290378 0
0.00275878 -0.00341797 0
0.00236396 -0.00293949 0
0.00246659 -0.00290378 0
0.00163941 -0.00197679 0
0.00236396 -0.00293949 0
0.00165418 -0.00174626 0
0.00163941 -0.00197679 0
0.000750154 -0.000733726 0
0.00165418 -0.00174626 0
0.00128998 -0.00160542 0
0.000750154 -0.000733726 0
0.00143314 -0.000278843 0
0.00128998 -0.00160542 0
0.00137891 -0.00122649 0
0.00143314 -0.000278843 0
0.00116909 -0.000393295 0
0.00137891 -0.00122649 0
0.000785814 -0.00114849 0
0.00116909 -0.000393295 0
0.000850454 -0.000464888 0
0.000785814 -0.00114849 0
0.000775238 -0.0010292 0
0.000850454 -0.000464888 0
0.000249362 -0.000412364 0
0.000775238 -0.0010292 0
0.000309349 -0.00109082 0
-0.000217106 -0.000986102 0
-0.000210885 -0.000987066 0
-0.000218148 -0.000719432 0
-0.000212679 -0.000723102 0
-0.000218148 -0.000719432 0
-0.000212679 -0.000723102 0
-0.000222955 -0.00117298 0
-0.000218185 -0.00117606 0
-0.000222955 -0.00117298 0
-0.000218185 -0.00117606 0
-0.000230809 -0.00100556 0
-0.000225403 -0.00101009 0
-0.000230809 -0.00100556 0
-0.000225403 -0.00101009 0
-0.000240108 -0.00137641 0
-0.000236754 -0.00138207 0
-0.000240108 -0.00137641 0
-0.000236754 -0.00138207 0
-0.000252636 -0.00128222 0
-0.000248502 -0.00128843 0
-0.000252636 -0.00128222 0
-0.000248502 -0.00128843 0
-0.000265422 -0.00158459 0
-0.000262787 -0.00159214 0
-0.000281803 -0.00154171 0
-0.000265422 -0.00158459 0
-0.000278887 -0.00155012 0
-0.000262787 -0.00159214 0
-0.000281803 -0.00154171 0
-0.000278887 -0.00155012 0
-0.000299821 -0.00178293 0
-0.000297765 -0.00179241 0
-0.000299821 -0.00178293 0
-0.000297765 -0.00179241 0
-0.000321508 -0.00177131 0
-0.000319855 -0.00178235 0
-0.000321508 -0.00177131 0
-0.000319855 -0.00178235 0
-0.000347129 -0.0019533 0
-0.000346922 -0.00196558 0
-0.000347129 -0.0019533 0
-0.000346922 -0.00196558 0
-0.000377351 -0.00195592 0
-0.000379108 -0.00197046 0
-0.000377351 -0.00195592 0
-0.000379108 -0.00197046 0
-0.000414217 -0.00207679 0
-0.000421238 -0.00209355 0
-0.000414217 -0.00207679 0
-0.000421238 -0.00209355 0
-0.00045673 -0.00207891 0
-0.000471349 -0.00209801 0
-0.00045673 -0.00207891 0
-0.000471349 -0.00209801 0
-0.000505855 -0.00213252 0
-0.000533375 -0.00215395 0
-0.000505855 -0.00213252 0
-0.000533375 -0.00215395 0
-0.00055679 -0.00212056 0
-0.000601649 -0.00214242 0
-0.00055679 -0.00212056 0
-0.000601649 -0.00214242 0
-0.000604826 -0.00209743 0
-0.000670873 -0.00211742 0
-0.000604826 -0.00209743 0
-0.000670873 -0.00211742 0
-0.0006386 -0.00206463 0
-0.000725502 -0.00207789 0
-0.0006386 -0.00206463 0
-0.000725502 -0.00207789 0
-0.000648304 -0.0019651 0
-0.000748625 -0.00196744 0
-0.000648304 -0.0019651 0
-0.000748625 -0.00196744 0
-0.000626271 -0.00193426 0
-0.000725172 -0.00192279 0
-0.000626271 -0.00193426 0
-0.000725172 -0.00192279 0
-0.000574592 -0.00178727 0
-0.000657556 -0.00176625 0
-0.000574592 -0.00178727 0
-0.000657556 -0.00176625 0
-0.000503978 -0.00180812 0
-0.00056445 -0.00178151 0
-0.000503978 -0.00180812 0
-0.00056445 -0.00178151 0
-0.000425398 -0.00163326 0
-0.000463574 -0.00160723 0
-0.000425398 -0.00163326 0
-0.000463574 -0.00160723 0
-0.000353415 -0.00173281 0
-0.000372965 -0.00170861 0
-0.000353415 -0.00173281 0
-0.000372965 -0.00170861 0
-0.000285881 -0.00150565 0
-0.000292381 -0.0014877 0
-0.000285881 -0.00150565 0
-0.000292381 -0.0014877 0
-0.000239268 -0.00169254 0
-0.000239396 -0.00167669 0
-0.000239268 -0.00169254 0
-0.000239396 -0.00167669 0
-0.000191698 -0.00136879 0
-0.000185803 -0.00135626 0
-0.000191698 -0.00136879 0
-0.000185803 -0.00135626 0
-0.000160281 -0.00167973 0
-0.000153428 -0.0016696 0
-0.000160281 -0.00167973 0
-0.000153428 -0.0016696 0
-0.000126073 -0.00120014 0
-0.000115342 -0.00119391 0
-0.000126073 -0.00120014 0
-0.000115342 -0.00119391 0
-0.000116875 -0.00169618 0
-0.000106049 -0.00169405 0
-0.000116875 -0.00169618 0
-0.000106049 -0.00169405 0
-0.000108605 -0.000974454 0
-9.73e-05 -0.000972463 0
-0.000108605 -0.000974454 0
-9.73e-05 -0.000972463 0
-0.000110462 -0.00175467 0
-9.77363e-05 -0.00175502 0
0.368672 -0.108087 0
0.226608 -0.089342 0
0.25026 0.0430133 0
0.200732 -0.0128901 0
0.15285 -0.0867601 0
0.146724 -0.0317258 0
0.226608 -0.089342 0
0.200732 -0.0128901 0
0.15285 -0.0867601 0
0.111351 -0.0709122 0
0.146724 -0.0317258 0
0.112864 -0.0387397 0
0.111351 -0.0709122 0
0.0859988 -0.060587 0
0.112864 -0.0387397 0
0.0877379 -0.0377766 0
0.0859988 -0.060587 0
0.0690854 -0.0514283 0
0.0877379 -0.0377766 0
0.0716812 -0.0362946 0
0.0690854 -0.0514283 0
0.0574241 -0.0451293 0
0.0716812 -0.0362946 0
0.0594567 -0.0335154 0
0.0489156 -0.0398235 0
0.0508367 -0.0312373 0
0.0574241 -0.0451293 0
0.0594567 -0.0335154 0
0.0424651 -0.0357611 0
0.0439611 -0.0288648 0
0.0489156 -0.0398235 0
0.0508367 -0.0312373 0
0.0424651 -0.0357611 0
0.037345 -0.0322579 0
0.0439611 -0.0288648 0
0.0386029 -0.0267658 0
0.037345 -0.0322579 0
0.0331279 -0.0292735 0
0.0386029 -0.0267658 0
0.0340838 -0.0246931 0
0.0331279 -0.0292735 0
0.029485 -0.0265511 0
0.0340838 -0.0246931 0
0.0302354 -0.0227233 0
0.029485 -0.0265511 0
0.0262578 -0.024052 0
0.0302354 -0.0227233 0
0.0268091 -0.0207581 0
0.0262578 -0.024052 0
0.0232948 -0.0216638 0
0.0268091 -0.0207581 0
0.0236933 -0.0188271 0
0.0232948 -0.0216638 0
0.0205716 -0.0194077 0
0.0236933 -0.0188271 0
0.0208031 -0.0169289 0
0.0205716 -0.0194077 0
0.018003 -0.0172397 0
0.0208031 -0.0169289 0
0.0181176 -0.0150689 0
0.0156387 -0.0152033 0
0.0156429 -0.0132556 0
0.018003 -0.0172397 0
0.0181176 -0.0150689 0
0.0133918 -0.0132671 0
0.0133587 -0.0115361 0
0.0156387 -0.0152033 0
0.0156429 -0.0132556 0
0.0133918 -0.0132671 0
0.0113905 -0.011492 0
0.0133587 -0.0115361 0
0.0112965 -0.00994491 0
0.00954712 -0.00985163 0
0.00938287 -0.00852863 0
0.0113905 -0.011492 0
0.0112965 -0.00994491 0
0.00799898 -0.00841555 0
0.00774092 -0.00724564 0
0.00954712 -0.00985163 0
0.00938287 -0.00852863 0
0.00799898 -0.00841555 0
0.00655391 -0.00714142 0
0.00774092 -0.00724564 0
0.00620697 -0.00604323 0
0.00538079 -0.00610231 0
0.00500982 -0.00501509 0
0.00655391 -0.00714142 0
0.00620697 -0.00604323 0
0.00538079 -0.00610231 0
0.00429904 -0.00510629 0
0.00500982 -0.00501509 0
0.00388899 -0.00424461 0
0.00429904 -0.00510629 0
0.0035453 -0.00434129 0
0.00388899 -0.00424461 0
0.00325457 -0.0034899 0
0.0035453 -0.00434129 0
0.00275878 -0.00341797 0
0.00325457 -0.0034899 0
0.0023497 -0.00288327 0
0.00275878 -0.00341797 0
0.00236396 -0.00293949 0
0.0023497 -0.00288327 0
0.00209969 -0.00226959 0
0.00162337 -0.000907771 0
0.00137891 -0.00122649 0
0.000972302 -0.001265 0
0.000785814 -0.00114849 0
0.000972302 -0.001265 0
0.000785814 -0.00114849 0
0.000697634 -0.00123208 0
0.000775238 -0.0010292 0
0.000697634 -0.00123208 0
0.000775238 -0.0010292 0
0.000144621 -0.00093927 0
0.000309349 -0.00109082 0
0.000758525 -0.00186975 0