# vtk DataFile Version 3.0
#This file was generated by the deal.II library on 2016/12/20 at 10:57:06
ASCII
DATASET UNSTRUCTURED_GRID

POINTS 7480 double
0.12 -0.5 0
0.15 -0.5 0
0.119014 -0.4708 0
0.15 -0.471429 0
0.11755 -0.441479 0
0.119014 -0.4708 0
0.15 -0.442857 0
0.15 -0.471429 0
0.117242 -0.412206 0
0.11755 -0.441479 0
0.15 -0.414286 0
0.15 -0.442857 0
0.118129 -0.383064 0
0.117242 -0.412206 0
0.15 -0.385714 0
0.15 -0.414286 0
0.12021 -0.354337 0
0.118129 -0.383064 0
0.15 -0.357143 0
0.15 -0.385714 0
0.121793 -0.32584 0
0.12021 -0.354337 0
0.15 -0.328571 0
0.15 -0.357143 0
0.122717 -0.296869 0
0.121793 -0.32584 0
0.15 -0.3 0
0.15 -0.328571 0
0.123759 -0.266752 0
0.122717 -0.296869 0
0.153091 -0.267708 0
0.15 -0.3 0
0.18456 -0.26795 0
0.153091 -0.267708 0
0.183333 -0.3 0
0.15 -0.3 0
0.216606 -0.268111 0
0.18456 -0.26795 0
0.216667 -0.3 0
0.183333 -0.3 0
0.24835 -0.26841 0
0.216606 -0.268111 0
0.25 -0.3 0
0.216667 -0.3 0
0.278782 -0.268564 0
0.24835 -0.26841 0
0.279437 -0.298917 0
0.25 -0.3 0
0.279638 -0.328111 0
0.279437 -0.298917 0
0.25 -0.328571 0
0.25 -0.3 0
0.27971 -0.356801 0
0.279638 -0.328111 0
0.25 -0.357143 0
0.25 -0.328571 0
0.279677 -0.385395 0
0.27971 -0.356801 0
0.25 -0.385714 0
0.25 -0.357143 0
0.279641 -0.413938 0
0.279677 -0.385395 0
0.25 -0.414286 0
0.25 -0.385714 0
0.279666 -0.442534 0
0.279641 -0.413938 0
0.25 -0.442857 0
0.25 -0.414286 0
0.279811 -0.471266 0
0.279666 -0.442534 0
0.25 -0.471429 0
0.25 -0.442857 0
0.28 -0.5 0
0.279811 -0.471266 0
0.25 -0.5 0
0.25 -0.471429 0
0.970149 0.5 0
0.970096 0.46978 0
1 0.5 0
1 0.469697 0
0.940299 0.5 0
0.940231 0.46984 0
0.970149 0.5 0
0.970096 0.46978 0
0.910448 0.5 0
0.910371 0.469856 0
0.940299 0.5 0
0.940231 0.46984 0
0.880597 0.5 0
0.880527 0.469909 0
0.910448 0.5 0
0.910371 0.469856 0
0.850746 0.5 0
0.850684 0.469926 0
0.880597 0.5 0
0.880527 0.469909 0
0.820896 0.5 0
0.820842 0.469978 0
0.850746 0.5 0
0.850684 0.469926 0
0.791045 0.5 0
0.791001 0.470016 0
0.820896 0.5 0
0.820842 0.469978 0
0.761194 0.5 0
0.761159 0.470055 0
0.791045 0.5 0
0.791001 0.470016 0
0.731343 0.5 0
0.731316 0.470091 0
0.761194 0.5 0
0.761159 0.470055 0
0.701493 0.5 0
0.701472 0.470118 0
0.731343 0.5 0
0.731316 0.470091 0
0.671642 0.5 0
0.671627 0.470134 0
0.701493 0.5 0
0.701472 0.470118 0
0.641791 0.5 0
0.64178 0.470142 0
0.671642 0.5 0
0.671627 0.470134 0
0.641791 0.5 0
0.61194 0.5 0
0.64178 0.470142 0
0.611934 0.470065 0
0.58209 0.5 0
0.582089 0.470002 0
0.61194 0.5 0
0.611934 0.470065 0
0.552239 0.5 0
0.552248 0.469853 0
0.58209 0.5 0
0.582089 0.470002 0
0.522388 0.5 0
0.522413 0.469718 0
0.552239 0.5 0
0.552248 0.469853 0
0.492537 0.5 0
0.492577 0.469656 0
0.522388 0.5 0
0.522413 0.469718 0
0.462687 0.5 0
0.462743 0.469571 0
0.492537 0.5 0
0.492577 0.469656 0
0.432836 0.5 0
0.432895 0.46963 0
0.462687 0.5 0
0.462743 0.469571 0
0.402985 0.5 0
0.403046 0.469669 0
0.432836 0.5 0
0.432895 0.46963 0
0.373134 0.5 0
0.373191 0.469745 0
0.402985 0.5 0
0.403046 0.469669 0
0.343284 0.5 0
0.343335 0.469723 0
0.373134 0.5 0
0.373191 0.469745 0
0.313433 0.5 0
0.313478 0.469741 0
0.343284 0.5 0
0.343335 0.469723 0
0.283582 0.5 0
0.283622 0.469783 0
0.313433 0.5 0
0.313478 0.469741 0
0.253731 0.5 0
0.253768 0.469742 0
0.283582 0.5 0
0.283622 0.469783 0
0.223881 0.5 0
0.223918 0.469737 0
0.253731 0.5 0
0.253768 0.469742 0
0.19403 0.5 0
0.194064 0.46981 0
0.223881 0.5 0
0.223918 0.469737 0
0.164179 0.5 0
0.16421 0.469881 0
0.19403 0.5 0
0.194064 0.46981 0
0.134328 0.5 0
0.134355 0.46994 0
0.164179 0.5 0
0.16421 0.469881 0
0.104478 0.5 0
0.1045 0.469997 0
0.134328 0.5 0
0.134355 0.46994 0
0.074627 0.5 0
0.074645 0.470051 0
0.104478 0.5 0
0.1045 0.469997 0
0.044776 0.5 0
0.04479 0.470093 0
0.074627 0.5 0
0.074645 0.470051 0
0.014925 0.5 0
0.014935 0.47012 0
0.044776 0.5 0
0.04479 0.470093 0
-0.014925 0.5 0
-0.014918 0.470135 0
0.014925 0.5 0
0.014935 0.47012 0
-0.044776 0.5 0
-0.044771 0.470143 0
-0.014925 0.5 0
-0.014918 0.470135 0
-0.074627 0.5 0
-0.074623 0.470146 0
-0.044776 0.5 0
-0.044771 0.470143 0
-0.104478 0.5 0
-0.104496 0.469979 0
-0.074627 0.5 0
-0.074623 0.470146 0
-0.134328 0.5 0
-0.134359 0.469935 0
-0.104478 0.5 0
-0.104496 0.469979 0
-0.164179 0.5 0
-0.164225 0.469839 0
-0.134328 0.5 0
-0.134359 0.469935 0
-0.164179 0.5 0
-0.19403 0.5 0
-0.164225 0.469839 0
-0.194083 0.469797 0
-0.223881 0.5 0
-0.22394 0.469753 0
-0.19403 0.5 0
-0.194083 0.469797 0
-0.253731 0.5 0
-0.253798 0.469819 0
-0.223881 0.5 0
-0.22394 0.469753 0
-0.283582 0.5 0
-0.283647 0.470019 0
-0.253731 0.5 0
-0.253798 0.469819 0
-0.313433 0.5 0
-0.313491 0.470151 0
-0.283582 0.5 0
-0.283647 0.470019 0
-0.343284 0.5 0
-0.343348 0.470381 0
-0.313433 0.5 0
-0.313491 0.470151 0
-0.343284 0.5 0
-0.373134 0.5 0
-0.343348 0.470381 0
-0.373195 0.470395 0
-0.373134 0.5 0
-0.402985 0.5 0
-0.373195 0.470395 0
-0.403049 0.470404 0
-0.432836 0.5 0
-0.432937 0.470297 0
-0.402985 0.5 0
-0.403049 0.470404 0
-0.462687 0.5 0
-0.462848 0.469995 0
-0.432836 0.5 0
-0.432937 0.470297 0
-0.492537 0.5 0
-0.492807 0.469765 0
-0.462687 0.5 0
-0.462848 0.469995 0
-0.522388 0.5 0
-0.52276 0.46958 0
-0.492537 0.5 0
-0.492807 0.469765 0
-0.552239 0.5 0
-0.55273 0.469652 0
-0.522388 0.5 0
-0.52276 0.46958 0
-0.58209 0.5 0
-0.582662 0.469731 0
-0.552239 0.5 0
-0.55273 0.469652 0
-0.61194 0.5 0
-0.612594 0.469999 0
-0.58209 0.5 0
-0.582662 0.469731 0
-0.641791 0.5 0
-0.642647 0.470419 0
-0.61194 0.5 0
-0.612594 0.469999 0
-0.671642 0.5 0
-0.672638 0.470543 0
-0.641791 0.5 0
-0.642647 0.470419 0
-0.701493 0.5 0
-0.702968 0.4698 0
-0.671642 0.5 0
-0.672638 0.470543 0
-0.701493 0.5 0
-0.731343 0.5 0
-0.702968 0.4698 0
-0.733232 0.468149 0
-0.731343 0.5 0
-0.761194 0.5 0
-0.733232 0.468149 0
-0.765399 0.466448 0
-0.820896 0.5 0
-0.822797 0.47207 0
-0.791045 0.5 0
-0.795702 0.469563 0
0.31 -0.5 0
0.309694 -0.471123 0
0.28 -0.5 0
0.279811 -0.471266 0
0.31 -0.5 0
0.34 -0.5 0
0.309694 -0.471123 0
0.339686 -0.471033 0
0.37 -0.5 0
0.369721 -0.471055 0
0.34 -0.5 0
0.339686 -0.471033 0
0.37 -0.5 0
0.4 -0.5 0
0.369721 -0.471055 0
0.399756 -0.470957 0
0.4 -0.5 0
0.43 -0.5 0
0.399756 -0.470957 0
0.429805 -0.470822 0
0.43 -0.5 0
0.46 -0.5 0
0.429805 -0.470822 0
0.459835 -0.470712 0
0.46 -0.5 0
0.49 -0.5 0
0.459835 -0.470712 0
0.489873 -0.470554 0
0.49 -0.5 0
0.52 -0.5 0
0.489873 -0.470554 0
0.519906 -0.470379 0
0.52 -0.5 0
0.55 -0.5 0
0.519906 -0.470379 0
0.54993 -0.470248 0
0.55 -0.5 0
0.58 -0.5 0
0.54993 -0.470248 0
0.579948 -0.470155 0
0.58 -0.5 0
0.61 -0.5 0
0.579948 -0.470155 0
0.609962 -0.470091 0
0.61 -0.5 0
0.64 -0.5 0
0.609962 -0.470091 0
0.639972 -0.47005 0
0.64 -0.5 0
0.67 -0.5 0
0.639972 -0.47005 0
0.66998 -0.470026 0
0.67 -0.5 0
0.7 -0.5 0
0.66998 -0.470026 0
0.699986 -0.470013 0
0.7 -0.5 0
0.73 -0.5 0
0.699986 -0.470013 0
0.72999 -0.470006 0
0.73 -0.5 0
0.76 -0.5 0
0.72999 -0.470006 0
0.759994 -0.470003 0
0.76 -0.5 0
0.79 -0.5 0
0.759994 -0.470003 0
0.78998 -0.469916 0
0.79 -0.5 0
0.82 -0.5 0
0.78998 -0.469916 0
0.819956 -0.469877 0
0.82 -0.5 0
0.85 -0.5 0
0.819956 -0.469877 0
0.849929 -0.469833 0
0.85 -0.5 0
0.88 -0.5 0
0.849929 -0.469833 0
0.879924 -0.469805 0
0.88 -0.5 0
0.91 -0.5 0
0.879924 -0.469805 0
0.909913 -0.469792 0
0.91 -0.5 0
0.94 -0.5 0
0.909913 -0.469792 0
0.939922 -0.469775 0
0.94 -0.5 0
0.97 -0.5 0
0.939922 -0.469775 0
0.969956 -0.46974 0
0.97 -0.5 0
1 -0.5 0
0.969956 -0.46974 0
1 -0.469697 0
-0.553191 0.053191 0
-0.531915 0.031915 0
-0.53184 0.075023 0
-0.510492 0.053733 0
-0.531915 0.031915 0
-0.510638 0.010638 0
-0.510492 0.053733 0
-0.489127 0.032461 0
-0.510638 0.010638 0
-0.489362 -0.010638 0
-0.489127 0.032461 0
-0.467791 0.011178 0
-0.489362 -0.010638 0
-0.468085 -0.031915 0
-0.467791 0.011178 0
-0.446536 -0.010172 0
-0.446809 -0.053191 0
-0.42524 -0.031466 0
-0.468085 -0.031915 0
-0.446536 -0.010172 0
-0.425532 -0.074468 0
-0.404012 -0.052824 0
-0.446809 -0.053191 0
-0.42524 -0.031466 0
-0.425532 -0.074468 0
-0.404255 -0.095745 0
-0.404012 -0.052824 0
-0.382783 -0.074175 0
-0.404255 -0.095745 0
-0.382979 -0.117021 0
-0.382783 -0.074175 0
-0.361545 -0.095511 0
-0.382979 -0.117021 0
-0.361702 -0.138298 0
-0.361545 -0.095511 0
-0.340288 -0.116831 0
-0.361702 -0.138298 0
-0.340426 -0.159574 0
-0.340288 -0.116831 0
-0.319034 -0.138159 0
-0.340426 -0.159574 0
-0.319149 -0.180851 0
-0.319034 -0.138159 0
-0.297766 -0.159484 0
-0.319149 -0.180851 0
-0.297872 -0.202128 0
-0.297766 -0.159484 0
-0.276489 -0.180797 0
-0.297872 -0.202128 0
-0.276596 -0.223404 0
-0.276489 -0.180797 0
-0.255087 -0.202105 0
-0.255319 -0.244681 0
-0.233674 -0.223466 0
-0.276596 -0.223404 0
-0.255087 -0.202105 0
-0.234043 -0.265957 0
-0.212119 -0.244916 0
-0.255319 -0.244681 0
-0.233674 -0.223466 0
-0.234043 -0.265957 0
-0.212766 -0.287234 0
-0.212119 -0.244916 0
-0.190657 -0.266392 0
-0.191489 -0.308511 0
-0.169261 -0.287934 0
-0.212766 -0.287234 0
-0.190657 -0.266392 0
-0.170213 -0.329787 0
-0.147854 -0.309624 0
-0.191489 -0.308511 0
-0.169261 -0.287934 0
-0.170213 -0.329787 0
-0.148936 -0.351064 0
-0.147854 -0.309624 0
-0.126431 -0.331364 0
-0.12766 -0.37234 0
-0.105256 -0.353368 0
-0.148936 -0.351064 0
-0.126431 -0.331364 0
-0.12766 -0.37234 0
-0.106383 -0.393617 0
-0.105256 -0.353368 0
-0.083924 -0.375263 0
-0.106383 -0.393617 0
-0.085106 -0.414894 0
-0.083924 -0.375263 0
-0.062097 -0.396824 0
-0.085106 -0.414894 0
-0.06383 -0.43617 0
-0.062097 -0.396824 0
-0.040132 -0.418076 0
-0.06383 -0.43617 0
-0.042553 -0.457447 0
-0.040132 -0.418076 0
-0.019646 -0.439891 0
-0.042553 -0.457447 0
-0.021277 -0.478723 0
-0.019646 -0.439891 0
-0.002475 -0.461393 0
-0.021277 -0.478723 0
0 -0.5 0
-0.002475 -0.461393 0
0.009599 -0.478226 0
0 -0.5 0
0.03 -0.5 0
0.009599 -0.478226 0
0.029922 -0.474701 0
0.03 -0.5 0
0.06 -0.5 0
0.029922 -0.474701 0
0.057397 -0.471689 0
0.06 -0.5 0
0.09 -0.5 0
0.057397 -0.471689 0
0.08796 -0.470463 0
0.09 -0.5 0
0.12 -0.5 0
0.08796 -0.470463 0
0.119014 -0.4708 0
0.969956 -0.46974 0
1 -0.469697 0
0.969923 -0.439465 0
1 -0.439394 0
0.969923 -0.439465 0
1 -0.439394 0
0.969894 -0.409159 0
1 -0.409091 0
0.969894 -0.409159 0
[...]
POINT_DATA 7480
VECTORS momentum double
0.000715159 -0.0004138 0
0.000103308 -0.000416218 0
0.000816819 -0.0013813 0
8.9774e-05 -0.00130496 0
0.000704938 -0.00148596 0
0.000816819 -0.0013813 0
0.000112008 -0.00142923 0
8.9774e-05 -0.00130496 0
0.000977047 -0.00227951 0
0.000704938 -0.00148596 0
4.81536e-05 -0.00230167 0
0.000112008 -0.00142923 0
0.00120623 -0.00220708 0
0.000977047 -0.00227951 0
9.38751e-06 -0.00218732 0
4.81536e-05 -0.00230167 0
0.00144599 -0.00258546 0
0.00120623 -0.00220708 0
9.52114e-05 -0.00249361 0
9.38751e-06 -0.00218732 0
0.00200809 -0.00199228 0
0.00144599 -0.00258546 0
-0.000322988 -0.00163992 0
9.52114e-05 -0.00249361 0
0.00286666 -0.00201909 0
0.00200809 -0.00199228 0
0.00177065 -0.000256425 0
-0.000322988 -0.00163992 0
0.00378818 -0.00216106 0
0.00286666 -0.00201909 0
0.00371576 -0.00152396 0
0.00177065 -0.000256425 0
0.00315356 -0.00257286 0
0.00371576 -0.00152396 0
0.00352087 -0.000935902 0
0.00177065 -0.000256425 0
0.00310274 -0.00141125 0
0.00315356 -0.00257286 0
0.003053 0.000121503 0
0.00352087 -0.000935902 0
0.00385271 -0.00236076 0
0.00310274 -0.00141125 0
0.00170011 -0.0018744 0
0.003053 0.000121503 0
0.00229763 -0.00242616 0
0.00385271 -0.00236076 0
0.00121771 -0.00373432 0
0.00170011 -0.0018744 0
-8.10773e-05 -0.00228607 0
0.00121771 -0.00373432 0
-0.000586213 -0.00274737 0
0.00170011 -0.0018744 0
0.000276627 -0.0020993 0
-8.10773e-05 -0.00228607 0
0.000174976 -0.00167725 0
-0.000586213 -0.00274737 0
-3.36186e-07 -0.00141963 0
0.000276627 -0.0020993 0
-8.05718e-05 -0.00168683 0
0.000174976 -0.00167725 0
0.000103849 -0.00143018 0
-3.36186e-07 -0.00141963 0
3.92763e-05 -0.00129007 0
-8.05718e-05 -0.00168683 0
-1.34237e-05 -0.00087649 0
0.000103849 -0.00143018 0
-2.19468e-05 -0.00096584 0
3.92763e-05 -0.00129007 0
2.45906e-05 -0.00101443 0
-1.34237e-05 -0.00087649 0
1.13281e-05 -0.000968484 0
-2.19468e-05 -0.00096584 0
2.56843e-06 -0.000423258 0
2.45906e-05 -0.00101443 0
-7.24193e-06 -0.000453856 0
1.13281e-05 -0.000968484 0
-0.000177931 -0.000652993 0
-0.000169111 -0.00179139 0
-0.000164411 -0.000653195 0
-0.000152784 -0.00179226 0
-0.000190079 -0.000653525 0
-0.00018443 -0.001793 0
-0.000177931 -0.000652993 0
-0.000169111 -0.00179139 0
-0.0001973 -0.000653151 0
-0.000191399 -0.00179522 0
-0.000190079 -0.000653525 0
-0.00018443 -0.001793 0
-0.000203029 -0.000652265 0
-0.00019783 -0.00179654 0
-0.0001973 -0.000653151 0
-0.000191399 -0.00179522 0
-0.00020422 -0.000651552 0
-0.000198347 -0.00179805 0
-0.000203029 -0.000652265 0
-0.00019783 -0.00179654 0
-0.000203367 -0.000650107 0
-0.000197272 -0.00179909 0
-0.00020422 -0.000651552 0
-0.000198347 -0.00179805 0
-0.000197135 -0.000649332 0
-0.000191681 -0.00180035 0
-0.000203367 -0.000650107 0
-0.000197272 -0.00179909 0
-0.000188681 -0.000647732 0
-0.000183267 -0.00180236 0
-0.000197135 -0.000649332 0
-0.000191681 -0.00180035 0
-0.000174405 -0.000646454 0
-0.000172147 -0.00180457 0
-0.000188681 -0.000647732 0
-0.000183267 -0.00180236 0
-0.000157653 -0.000645613 0
-0.000157528 -0.00180734 0
-0.000174405 -0.000646454 0
-0.000172147 -0.00180457 0
-0.000135888 -0.000644305 0
-0.00014034 -0.00180984 0
-0.000157653 -0.000645613 0
-0.000157528 -0.00180734 0
-0.000111415 -0.000643501 0
-0.000125095 -0.00181334 0
-0.000135888 -0.000644305 0
-0.00014034 -0.00180984 0
-0.000111415 -0.000643501 0
-8.86806e-05 -0.000643991 0
-0.000125095 -0.00181334 0
-0.000107506 -0.00181743 0
-6.57006e-05 -0.000644234 0
-9.17339e-05 -0.00182289 0
-8.86806e-05 -0.000643991 0
-0.000107506 -0.00181743 0
-4.60794e-05 -0.000646803 0
-7.59906e-05 -0.00182697 0
-6.57006e-05 -0.000644234 0
-9.17339e-05 -0.00182289 0
-3.2723e-05 -0.00064928 0
-5.50365e-05 -0.00182756 0
-4.60794e-05 -0.000646803 0
-7.59906e-05 -0.00182697 0
-1.61586e-05 -0.000650273 0
-3.37252e-05 -0.00182327 0
-3.2723e-05 -0.00064928 0
-5.50365e-05 -0.00182756 0
-4.19339e-06 -0.000651955 0
-1.2015e-05 -0.00181606 0
-1.61586e-05 -0.000650273 0
-3.37252e-05 -0.00182327 0
7.59941e-06 -0.000652191 0
1.31333e-05 -0.00180639 0
-4.19339e-06 -0.000651955 0
-1.2015e-05 -0.00181606 0
3.35874e-05 -0.000650857 0
4.76624e-05 -0.00179501 0
7.59941e-06 -0.000652191 0
1.31333e-05 -0.00180639 0
8.3164e-05 -0.000648614 0
9.77606e-05 -0.00178416 0
3.35874e-05 -0.000650857 0
4.76624e-05 -0.00179501 0
0.000164951 -0.000648105 0
0.000178893 -0.00176946 0
8.3164e-05 -0.000648614 0
9.77606e-05 -0.00178416 0
0.000281525 -0.000647211 0
0.000301909 -0.00175393 0
0.000164951 -0.000648105 0
0.000178893 -0.00176946 0
0.000451328 -0.000646539 0
0.000473285 -0.00172871 0
0.000281525 -0.000647211 0
0.000301909 -0.00175393 0
0.000679723 -0.000646708 0
0.000703811 -0.00169236 0
0.000451328 -0.000646539 0
0.000473285 -0.00172871 0
0.000968801 -0.000648813 0
0.00100523 -0.00164381 0
0.000679723 -0.000646708 0
0.000703811 -0.00169236 0
0.00132614 -0.00065117 0
0.00138634 -0.00158436 0
0.000968801 -0.000648813 0
0.00100523 -0.00164381 0
0.0017709 -0.000648296 0
0.00185576 -0.00151702 0
0.00132614 -0.00065117 0
0.00138634 -0.00158436 0
0.00229717 -0.00064335 0
0.00240258 -0.00143844 0
0.0017709 -0.000648296 0
0.00185576 -0.00151702 0
0.00290129 -0.000636698 0
0.00302754 -0.00134506 0
0.00229717 -0.00064335 0
0.00240258 -0.00143844 0
0.00355348 -0.000628787 0
0.0036992 -0.00123648 0
0.00290129 -0.000636698 0
0.00302754 -0.00134506 0
0.00423025 -0.000620831 0
0.00438996 -0.00110748 0
0.00355348 -0.000628787 0
0.0036992 -0.00123648 0
0.00486627 -0.000615615 0
0.00503843 -0.000955669 0
0.00423025 -0.000620831 0
0.00438996 -0.00110748 0
0.0054006 -0.000610981 0
0.00558928 -0.000776817 0
0.00486627 -0.000615615 0
0.00503843 -0.000955669 0
0.00573343 -0.000605462 0
0.00593305 -0.000565678 0
0.0054006 -0.000610981 0
0.00558928 -0.000776817 0
0.00575925 -0.000600414 0
0.00595919 -0.00030998 0
0.00573343 -0.000605462 0
0.00593305 -0.000565678 0
0.00533092 -0.000595156 0
0.00553972 2.03172e-06 0
0.00575925 -0.000600414 0
0.00595919 -0.00030998 0
0.00431387 -0.000590595 0
0.00452837 0.0003782 0
0.00533092 -0.000595156 0
0.00553972 2.03172e-06 0
0.00258519 -0.000584549 0
0.00280001 0.000825391 0
0.00431387 -0.000590595 0
0.00452837 0.0003782 0
0.00258519 -0.000584549 0
-4.23884e-05 -0.000577492 0
0.00280001 0.000825391 0
0.000179104 0.00136711 0
-0.00362903 -0.000559923 0
-0.00340216 0.0019999 0
-4.23884e-05 -0.000577492 0
0.000179104 0.00136711 0
-0.00844062 -0.00054055 0
-0.00821927 0.0027839 0
-0.00362903 -0.000559923 0
-0.00340216 0.0019999 0
-0.0144481 -0.000506833 0
-0.0142623 0.00371151 0
-0.00844062 -0.00054055 0
-0.00821927 0.0027839 0
-0.0221183 -0.000473272 0
-0.0219813 0.00485201 0
-0.0144481 -0.000506833 0
-0.0142623 0.00371151 0
-0.0312087 -0.000421132 0
-0.0311903 0.00618112 0
-0.0221183 -0.000473272 0
-0.0219813 0.00485201 0
-0.0312087 -0.000421132 0
-0.0425346 -0.000374372 0
-0.0311903 0.00618112 0
-0.0426672 0.00783748 0
-0.0425346 -0.000374372 0
-0.0555373 -0.000314075 0
-0.0426672 0.00783748 0
-0.0558958 0.00975902 0
-0.0715049 -0.000261307 0
-0.0721128 0.0119754 0
-0.0555373 -0.000314075 0
-0.0558958 0.00975902 0
-0.0893081 -0.0001885 0
-0.0902824 0.0144929 0
-0.0715049 -0.000261307 0
-0.0721128 0.0119754 0
-0.110685 -0.00015783 0
-0.112124 0.0169797 0
-0.0893081 -0.0001885 0
-0.0902824 0.0144929 0
-0.133433 -0.000130517 0
-0.135559 0.0191678 0
-0.110685 -0.00015783 0
-0.112124 0.0169797 0
-0.159696 -0.00020126 0
-0.162247 0.0208011 0
-0.133433 -0.000130517 0
-0.135559 0.0191678 0
-0.186343 -9.93312e-05 0
-0.189472 0.0221376 0
-0.159696 -0.00020126 0
-0.162247 0.0208011 0
-0.216596 -0.000243166 0
-0.219921 0.0236307 0
-0.186343 -9.93312e-05 0
-0.189472 0.0221376 0
-0.247181 -0.000237367 0
-0.250947 0.0257311 0
-0.216596 -0.000243166 0
-0.219921 0.0236307 0
-0.283024 -0.000234565 0
-0.284582 0.0284408 0
-0.247181 -0.000237367 0
-0.250947 0.0257311 0
-0.318122 0.00054771 0
-0.322026 0.0324315 0
-0.283024 -0.000234565 0
-0.284582 0.0284408 0
-0.318122 0.00054771 0
-0.358342 -0.000303307 0
-0.322026 0.0324315 0
-0.355884 0.0296264 0
-0.358342 -0.000303307 0
-0.375666 0.000412494 0
-0.355884 0.0296264 0
-0.388996 0.0119893 0
-0.355276 5.00095e-05 0
-0.348169 -0.0288289 0
-0.376895 -0.00152772 0
-0.385942 -0.0211295 0
8.42659e-06 -0.00042074 0
1.32165e-05 -0.00101326 0
2.56843e-06 -0.000423258 0
2.45906e-05 -0.00101443 0
8.42659e-06 -0.00042074 0
-7.94041e-06 -0.000410449 0
1.32165e-05 -0.00101326 0
2.00949e-06 -0.00101842 0
-2.84414e-05 -0.000414241 0
-2.62509e-05 -0.00100033 0
-7.94041e-06 -0.000410449 0
2.00949e-06 -0.00101842 0
-2.84414e-05 -0.000414241 0
-5.56452e-05 -0.000411554 0
-2.62509e-05 -0.00100033 0
-5.58807e-05 -0.000994875 0
-5.56452e-05 -0.000411554 0
-8.44633e-05 -0.000416024 0
-5.58807e-05 -0.000994875 0
-9.01285e-05 -0.000984104 0
-8.44633e-05 -0.000416024 0
-0.000118735 -0.000415458 0
-9.01285e-05 -0.000984104 0
-0.000120735 -0.000983637 0
-0.000118735 -0.000415458 0
-0.000147557 -0.000417006 0
-0.000120735 -0.000983637 0
-0.000155033 -0.000981685 0
-0.000147557 -0.000417006 0
-0.000177176 -0.000418234 0
-0.000155033 -0.000981685 0
-0.000186971 -0.000984166 0
-0.000177176 -0.000418234 0
-0.000204831 -0.000421091 0
-0.000186971 -0.000984166 0
-0.000213671 -0.000984539 0
-0.000204831 -0.000421091 0
-0.000231279 -0.00042253 0
-0.000213671 -0.000984539 0
-0.000236562 -0.000987548 0
-0.000231279 -0.00042253 0
-0.000252163 -0.000423994 0
-0.000236562 -0.000987548 0
-0.000255528 -0.000989124 0
-0.000252163 -0.000423994 0
-0.000270419 -0.000424899 0
-0.000255528 -0.000989124 0
-0.000271285 -0.000991768 0
-0.000270419 -0.000424899 0
-0.000283475 -0.000425432 0
-0.000271285 -0.000991768 0
-0.000282249 -0.000993607 0
-0.000283475 -0.000425432 0
-0.000293911 -0.00042568 0
-0.000282249 -0.000993607 0
-0.000291219 -0.000996124 0
-0.000293911 -0.00042568 0
-0.000299036 -0.000425925 0
-0.000291219 -0.000996124 0
-0.000296497 -0.00099861 0
-0.000299036 -0.000425925 0
-0.000300482 -0.000426092 0
-0.000296497 -0.00099861 0
-0.00030128 -0.00100199 0
-0.000300482 -0.000426092 0
-0.000300163 -0.000426905 0
-0.00030128 -0.00100199 0
-0.000302907 -0.00100491 0
-0.000300163 -0.000426905 0
-0.000300088 -0.000427808 0
-0.000302907 -0.00100491 0
-0.000302195 -0.00100849 0
-0.000300088 -0.000427808 0
-0.000297467 -0.000428829 0
-0.000302195 -0.00100849 0
-0.000298751 -0.00101225 0
-0.000297467 -0.000428829 0
-0.000295588 -0.000429627 0
-0.000298751 -0.00101225 0
-0.000295283 -0.00101607 0
-0.000295588 -0.000429627 0
-0.000290021 -0.000429989 0
-0.000295283 -0.00101607 0
-0.000289303 -0.00101993 0
-0.000290021 -0.000429989 0
-0.0002838 -0.000430512 0
-0.000289303 -0.00101993 0
-0.000283169 -0.00102316 0
-0.0002838 -0.000430512 0
-0.000274048 -0.000430601 0
-0.000283169 -0.00102316 0
-0.000273756 -0.00102552 0
-0.000274048 -0.000430601 0
-0.000265502 -0.00043057 0
-0.000273756 -0.00102552 0
-0.000266037 -0.00102656 0
0.288377 -0.279021 0
0.169915 -0.163431 0
0.299813 -0.106402 0
0.194005 -0.0959048 0
0.169915 -0.163431 0
0.118577 -0.117387 0
0.194005 -0.0959048 0
0.136265 -0.0831836 0
0.118577 -0.117387 0
0.0904672 -0.0900412 0
0.136265 -0.0831836 0
0.102089 -0.0691584 0
0.0904672 -0.0900412 0
0.0724493 -0.0723291 0
0.102089 -0.0691584 0
0.0801577 -0.0586534 0
0.0600379 -0.0601444 0
0.0653588 -0.050343 0
0.0724493 -0.0723291 0
0.0801577 -0.0586534 0
0.051085 -0.0512709 0
0.0547928 -0.0440948 0
0.0600379 -0.0601444 0
0.0653588 -0.050343 0
0.051085 -0.0512709 0
0.0444153 -0.0446926 0
0.0547928 -0.0440948 0
0.047066 -0.0391595 0
0.0444153 -0.0446926 0
0.0392759 -0.0395938 0
0.047066 -0.0391595 0
0.0411791 -0.0352452 0
0.0392759 -0.0395938 0
0.0352022 -0.0355557 0
0.0411791 -0.0352452 0
0.0365737 -0.0320284 0
0.0352022 -0.0355557 0
0.0318569 -0.0322293 0
0.0365737 -0.0320284 0
0.0328269 -0.0293194 0
0.0318569 -0.0322293 0
0.0290011 -0.0293882 0
0.0328269 -0.0293194 0
0.0296673 -0.02693 0
0.0290011 -0.0293882 0
0.0264827 -0.026879 0
0.0296673 -0.02693 0
0.0269133 -0.0247811 0
0.0264827 -0.026879 0
0.0241692 -0.0245734 0
0.0269133 -0.0247811 0
0.0244034 -0.0227629 0
0.0220214 -0.0224239 0
0.0220963 -0.0208568 0
0.0241692 -0.0245734 0
0.0244034 -0.0227629 0
0.0199507 -0.020351 0
0.0198566 -0.0189874 0
0.0220214 -0.0224239 0
0.0220963 -0.0208568 0
0.0199507 -0.020351 0
0.0179926 -0.0184027 0
0.0198566 -0.0189874 0
0.017765 -0.0171864 0
0.0160607 -0.0164893 0
0.0157225 -0.0154093 0
0.0179926 -0.0184027 0
0.017765 -0.0171864 0
0.0142487 -0.0147091 0
0.0138622 -0.0137278 0
0.0160607 -0.0164893 0
0.0157225 -0.0154093 0
0.0142487 -0.0147091 0
0.012454 -0.0129212 0
0.0138622 -0.0137278 0
0.0120023 -0.0120955 0
0.0108707 -0.0113316 0
0.0103197 -0.0106205 0
0.012454 -0.0129212 0
0.0120023 -0.0120955 0
0.0108707 -0.0113316 0
0.00930217 -0.00977351 0
0.0103197 -0.0106205 0
0.00867252 -0.00910599 0
0.00930217 -0.00977351 0
0.00790553 -0.00838537 0
0.00867252 -0.00910599 0
0.00729373 -0.00777803 0
0.00790553 -0.00838537 0
0.00641353 -0.00690046 0
0.00729373 -0.00777803 0
0.00588896 -0.00622168 0
0.00641353 -0.00690046 0
0.00489934 -0.00530052 0
0.00588896 -0.00622168 0
0.00484722 -0.00508416 0
0.00489934 -0.00530052 0
0.00329901 -0.00365834 0
0.00484722 -0.00508416 0
0.00355576 -0.00319663 0
0.00329901 -0.00365834 0
0.00148813 -0.00105619 0
0.00355576 -0.00319663 0
0.00284833 -0.00248042 0
0.00148813 -0.00105619 0
0.00285109 -0.000267184 0
0.00284833 -0.00248042 0
0.00290883 -0.00188918 0
0.00285109 -0.000267184 0
0.0024031 -0.000417709 0
0.00290883 -0.00188918 0
0.00211926 -0.00160119 0
0.0024031 -0.000417709 0
0.00179802 -0.00047918 0
0.00211926 -0.00160119 0
0.0017652 -0.00139262 0
0.00179802 -0.00047918 0
0.000715159 -0.0004138 0
0.0017652 -0.00139262 0
0.000816819 -0.0013813 0
-0.000273756 -0.00102552 0
-0.000266037 -0.00102656 0
-0.000274319 -0.000794973 0
-0.000267491 -0.000798748 0
-0.000274319 -0.000794973 0
-0.000267491 -0.000798748 0
-0.000278952 -0.00128002 0
-0.000272929 -0.00128325 0
-0.000278952 -0.00128002 0
-0.000272929 -0.00128325 0
-0.000287077 -0.00113898 0
-0.000280592 -0.00114369 0
-0.000287077 -0.00113898 0
-0.000280592 -0.00114369 0
-0.00029697 -0.00152801 0
-0.000292616 -0.00153388 0
-0.00029697 -0.00152801 0
-0.000292616 -0.00153388 0
-0.000310391 -0.0014445 0
-0.000305401 -0.00145091 0
-0.000310391 -0.0014445 0
-0.000305401 -0.00145091 0
-0.000324205 -0.00174832 0
-0.000320743 -0.00175606 0
-0.000341839 -0.00169983 0
-0.000324205 -0.00174832 0
-0.000338195 -0.00170841 0
-0.000320743 -0.00175606 0
-0.000341839 -0.00169983 0
-0.000338195 -0.00170841 0
-0.00036126 -0.00192837 0
-0.000358484 -0.00193796 0
-0.00036126 -0.00192837 0
-0.000358484 -0.00193796 0
-0.000384607 -0.00190009 0
-0.000382301 -0.0019112 0
-0.000384607 -0.00190009 0
-0.000382301 -0.0019112 0
-0.00041206 -0.00206264 0
-0.00041121 -0.0020749 0
-0.00041206 -0.00206264 0
-0.00041121 -0.0020749 0
-0.000444374 -0.00204602 0
-0.000445566 -0.00206044 0
-0.000444374 -0.00204602 0
-0.000445566 -0.00206044 0
-0.00048352 -0.00214912 0
-0.000490047 -0.00216563 0
-0.00048352 -0.00214912 0
-0.000490047 -0.00216563 0
-0.000528558 -0.00213667 0
-0.000542822 -0.00215542 0
-0.000528558 -0.00213667 0
-0.000542822 -0.00215542 0
-0.000580315 -0.00217943 0
-0.000607628 -0.00220039 0
-0.000580315 -0.00217943 0
-0.000607628 -0.00220039 0
-0.000633828 -0.00216039 0
-0.000678672 -0.00218172 0
-0.000633828 -0.00216039 0
-0.000678672 -0.00218172 0
-0.000683963 -0.00213388 0
-0.000750162 -0.00215336 0
-0.000683963 -0.00213388 0
-0.000750162 -0.00215336 0
-0.000718878 -0.00210038 0
-0.000806053 -0.00211331 0
-0.000718878 -0.00210038 0
-0.000806053 -0.00211331 0
-0.000728283 -0.00200335 0
-0.000828864 -0.00200568 0
-0.000728283 -0.00200335 0
-0.000828864 -0.00200568 0
-0.000704369 -0.00197698 0
-0.000803382 -0.00196598 0
-0.000704369 -0.00197698 0
-0.000803382 -0.00196598 0
-0.0006495 -0.00183815 0
-0.000732318 -0.00181818 0
-0.0006495 -0.00183815 0
-0.000732318 -0.00181818 0
-0.000575043 -0.00186911 0
-0.000635013 -0.0018441 0
-0.000575043 -0.00186911 0
-0.000635013 -0.0018441 0
-0.000492722 -0.00170863 0
-0.00052994 -0.00168466 0
-0.000492722 -0.00170863 0
-0.00052994 -0.00168466 0
-0.000417656 -0.00182307 0
-0.000435741 -0.00180122 0
-0.000417656 -0.00182307 0
-0.000435741 -0.00180122 0
-0.000347936 -0.00161352 0
-0.000352453 -0.00159799 0
-0.000347936 -0.00161352 0
-0.000352453 -0.00159799 0
-0.000299821 -0.00181374 0
-0.000297506 -0.00180025 0
-0.000299821 -0.00181374 0
-0.000297506 -0.00180025 0
-0.000251173 -0.00150172 0
-0.000242445 -0.0014914 0
-0.000251173 -0.00150172 0
-0.000242445 -0.0014914 0
-0.000218831 -0.00181322 0
-0.000208851 -0.00180506 0
-0.000218831 -0.00181322 0
-0.000208851 -0.00180506 0
-0.000184065 -0.00132866 0
-0.000169985 -0.00132414 0
-0.000184065 -0.00132866 0
-0.000169985 -0.00132414 0
-0.00017481 -0.00180307 0
-0.000160485 -0.00180232 0
-0.00017481 -0.00180307 0
-0.000160485 -0.00180232 0
-0.000166973 -0.00105487 0
-0.000152082 -0.00105384 0
-0.000166973 -0.00105487 0
-0.000152082 -0.00105384 0
-0.000169111 -0.00179139 0
-0.000152784 -0.00179226 0
0.299813 -0.106402 0
0.194005 -0.0959048 0
0.232274 0.0102528 0
0.179445 -0.0278117 0
0.194005 -0.0959048 0
0.136265 -0.0831836 0
0.179445 -0.0278117 0
0.13342 -0.0387182 0
0.136265 -0.0831836 0
0.102089 -0.0691584 0
0.13342 -0.0387182 0
0.103602 -0.0416593 0
0.102089 -0.0691584 0
0.0801577 -0.0586534 0
0.103602 -0.0416593 0
0.0821707 -0.0393545 0
0.0653588 -0.050343 0
0.0675578 -0.0368731 0
0.0801577 -0.0586534 0
0.0821707 -0.0393545 0
0.0547928 -0.0440948 0
0.0566517 -0.033905 0
0.0653588 -0.050343 0
0.0675578 -0.0368731 0
0.0547928 -0.0440948 0
0.047066 -0.0391595 0
0.0566517 -0.033905 0
0.0486747 -0.0313552 0
0.047066 -0.0391595 0
0.0411791 -0.0352452 0
0.0486747 -0.0313552 0
0.0424592 -0.0289719 0
0.0411791 -0.0352452 0
0.0365737 -0.0320284 0
0.0424592 -0.0289719 0
0.0376217 -0.0269032 0
0.0365737 -0.0320284 0
0.0328269 -0.0293194 0
0.0376217 -0.0269032 0
0.0336506 -0.0249827 0
0.0328269 -0.0293194 0
0.0296673 -0.02693 0
0.0336506 -0.0249827 0
0.0303237 -0.0232148 0
0.0296673 -0.02693 0
0.0269133 -0.0247811 0
0.0303237 -0.0232148 0
0.0273849 -0.0215346 0
0.0269133 -0.0247811 0
0.0244034 -0.0227629 0
0.0273849 -0.0215346 0
0.0247432 -0.0199057 0
0.0220963 -0.0208568 0
0.0223035 -0.0182791 0
0.0244034 -0.0227629 0
0.0247432 -0.0199057 0
0.0198566 -0.0189874 0
0.0200042 -0.0166662 0
0.0220963 -0.0208568 0
0.0223035 -0.0182791 0
0.0198566 -0.0189874 0
0.017765 -0.0171864 0
0.0200042 -0.0166662 0
0.0178258 -0.015076 0
0.0157225 -0.0154093 0
0.0156752 -0.0135564 0
0.017765 -0.0171864 0
0.0178258 -0.015076 0
0.0138622 -0.0137278 0
0.0136945 -0.0120647 0
0.0157225 -0.0154093 0
0.0156752 -0.0135564 0
0.0138622 -0.0137278 0
0.0120023 -0.0120955 0
0.0136945 -0.0120647 0
0.0117091 -0.010539 0
0.0103197 -0.0106205 0
0.0099631 -0.00910948 0
0.0120023 -0.0120955 0
0.0117091 -0.010539 0
0.0103197 -0.0106205 0
0.00867252 -0.00910599 0
0.0099631 -0.00910948 0
0.00821301 -0.00785173 0
0.00867252 -0.00910599 0
0.00729373 -0.00777803 0
0.00821301 -0.00785173 0
0.00693817 -0.00654586 0
0.00729373 -0.00777803 0
0.00588896 -0.00622168 0
0.00693817 -0.00654586 0
0.00537257 -0.00530417 0
0.00588896 -0.00622168 0
0.00484722 -0.00508416 0
0.00537257 -0.00530417 0
0.0045374 -0.00404073 0
0.0035208 -0.00210324 0
0.00290883 -0.00188918 0
0.00256567 -0.00221334 0
0.00211926 -0.00160119 0
0.00256567 -0.00221334 0
0.00211926 -0.00160119 0
0.0018599 -0.00194691 0
0.0017652 -0.00139262 0
0.0018599 -0.00194691 0
0.0017652 -0.00139262 0
0.000704938 -0.00148596 0
0.000816819 -0.0013813 0
0.00214152 -0.00281924 0
0.0018599 -0.00194691 0
0.000977047 -0.00227951 0
0.000704938 -0.00148596 0
0.00240855 -0.00259861 0
0.00214152 -0.00281924 0
0.00120623 -0.00220708 0
0.000977047 -0.00227951 0
0.00277173 -0.00290601 0
0.00240855 -0.00259861 0
0.00144599 -0.00258546 0
0.00120623 -0.00220708 0
0.00330933 -0.00276357 0
0.00277173 -0.00290601 0
0.00200809 -0.00199228 0
0.00144599 -0.00258546 0
0.00403268 -0.0030533 0
0.00330933 -0.00276357 0
0.00286666 -0.00201909 0
0.00200809 -0.00199228 0
0.00482182 -0.00310365 0
0.00403268 -0.0030533 0
0.00378818 -0.00216106 0