# vtk DataFile Version 3.0
#This file was generated by the deal.II library on 2016/12/20 at 10:56:51
ASCII
DATASET UNSTRUCTURED_GRID

POINTS 7324 double
-1 0.5 0
-0.978723 0.478723 0
-0.970149 0.5 0
-0.964976 0.485465 0
0.12 -0.5 0
0.15 -0.5 0
0.119014 -0.4708 0
0.15 -0.471429 0
0.11755 -0.441479 0
0.119014 -0.4708 0
0.15 -0.442857 0
0.15 -0.471429 0
0.117242 -0.412206 0
0.11755 -0.441479 0
0.15 -0.414286 0
0.15 -0.442857 0
0.118129 -0.383064 0
0.117242 -0.412206 0
0.15 -0.385714 0
0.15 -0.414286 0
0.12021 -0.354337 0
0.118129 -0.383064 0
0.15 -0.357143 0
0.15 -0.385714 0
0.121793 -0.32584 0
0.12021 -0.354337 0
0.15 -0.328571 0
0.15 -0.357143 0
0.122717 -0.296869 0
0.121793 -0.32584 0
0.15 -0.3 0
0.15 -0.328571 0
0.123759 -0.266752 0
0.122717 -0.296869 0
0.153091 -0.267708 0
0.15 -0.3 0
0.18456 -0.26795 0
0.153091 -0.267708 0
0.183333 -0.3 0
0.15 -0.3 0
0.216606 -0.268111 0
0.18456 -0.26795 0
0.216667 -0.3 0
0.183333 -0.3 0
0.24835 -0.26841 0
0.216606 -0.268111 0
0.25 -0.3 0
0.216667 -0.3 0
0.278782 -0.268564 0
0.24835 -0.26841 0
0.279437 -0.298917 0
0.25 -0.3 0
0.279638 -0.328111 0
0.279437 -0.298917 0
0.25 -0.328571 0
0.25 -0.3 0
0.27971 -0.356801 0
0.279638 -0.328111 0
0.25 -0.357143 0
0.25 -0.328571 0
0.279677 -0.385395 0
0.27971 -0.356801 0
0.25 -0.385714 0
0.25 -0.357143 0
0.279641 -0.413938 0
0.279677 -0.385395 0
0.25 -0.414286 0
0.25 -0.385714 0
0.279666 -0.442534 0
0.279641 -0.413938 0
0.25 -0.442857 0
0.25 -0.414286 0
0.279811 -0.471266 0
0.279666 -0.442534 0
0.25 -0.471429 0
0.25 -0.442857 0
0.28 -0.5 0
0.279811 -0.471266 0
0.25 -0.5 0
0.25 -0.471429 0
0.970149 0.5 0
0.970096 0.46978 0
1 0.5 0
1 0.469697 0
0.940299 0.5 0
0.940231 0.46984 0
0.970149 0.5 0
0.970096 0.46978 0
0.910448 0.5 0
0.910371 0.469856 0
0.940299 0.5 0
0.940231 0.46984 0
0.880597 0.5 0
0.880527 0.469909 0
0.910448 0.5 0
0.910371 0.469856 0
0.850746 0.5 0
0.850684 0.469926 0
0.880597 0.5 0
0.880527 0.469909 0
0.820896 0.5 0
0.820842 0.469978 0
0.850746 0.5 0
0.850684 0.469926 0
0.791045 0.5 0
0.791001 0.470016 0
0.820896 0.5 0
0.820842 0.469978 0
0.761194 0.5 0
0.761159 0.470055 0
0.791045 0.5 0
0.791001 0.470016 0
0.731343 0.5 0
0.731316 0.470091 0
0.761194 0.5 0
0.761159 0.470055 0
0.701493 0.5 0
0.701472 0.470118 0
0.731343 0.5 0
0.731316 0.470091 0
0.671642 0.5 0
0.671627 0.470134 0
0.701493 0.5 0
0.701472 0.470118 0
0.641791 0.5 0
0.64178 0.470142 0
0.671642 0.5 0
0.671627 0.470134 0
0.641791 0.5 0
0.61194 0.5 0
0.64178 0.470142 0
0.611934 0.470065 0
0.58209 0.5 0
0.582089 0.470002 0
0.61194 0.5 0
0.611934 0.470065 0
0.552239 0.5 0
0.552248 0.469853 0
0.58209 0.5 0
0.582089 0.470002 0
0.522388 0.5 0
0.522413 0.469718 0
0.552239 0.5 0
0.552248 0.469853 0
0.492537 0.5 0
0.492577 0.469656 0
0.522388 0.5 0
0.522413 0.469718 0
0.462687 0.5 0
0.462743 0.469571 0
0.492537 0.5 0
0.492577 0.469656 0
0.432836 0.5 0
0.432895 0.46963 0
0.462687 0.5 0
0.462743 0.469571 0
0.402985 0.5 0
0.403046 0.469669 0
0.432836 0.5 0
0.432895 0.46963 0
0.373134 0.5 0
0.373191 0.469745 0
0.402985 0.5 0
0.403046 0.469669 0
0.343284 0.5 0
0.343335 0.469723 0
0.373134 0.5 0
0.373191 0.469745 0
0.313433 0.5 0
0.313478 0.469741 0
0.343284 0.5 0
0.343335 0.469723 0
0.283582 0.5 0
0.283622 0.469783 0
0.313433 0.5 0
0.313478 0.469741 0
0.253731 0.5 0
0.253768 0.469742 0
0.283582 0.5 0
0.283622 0.469783 0
0.223881 0.5 0
0.223918 0.469737 0
0.253731 0.5 0
0.253768 0.469742 0
0.19403 0.5 0
0.194064 0.46981 0
0.223881 0.5 0
0.223918 0.469737 0
0.164179 0.5 0
0.16421 0.469881 0
0.19403 0.5 0
0.194064 0.46981 0
0.134328 0.5 0
0.134355 0.46994 0
0.164179 0.5 0
0.16421 0.469881 0
0.104478 0.5 0
0.1045 0.469997 0
0.134328 0.5 0
0.134355 0.46994 0
0.074627 0.5 0
0.074645 0.470051 0
0.104478 0.5 0
0.1045 0.469997 0
0.044776 0.5 0
0.04479 0.470093 0
0.074627 0.5 0
0.074645 0.470051 0
0.014925 0.5 0
0.014935 0.47012 0
0.044776 0.5 0
0.04479 0.470093 0
-0.014925 0.5 0
-0.014918 0.470135 0
0.014925 0.5 0
0.014935 0.47012 0
-0.044776 0.5 0
-0.044771 0.470143 0
-0.014925 0.5 0
-0.014918 0.470135 0
-0.074627 0.5 0
-0.074623 0.470146 0
-0.044776 0.5 0
-0.044771 0.470143 0
-0.104478 0.5 0
-0.104496 0.469979 0
-0.074627 0.5 0
-0.074623 0.470146 0
-0.134328 0.5 0
-0.134359 0.469935 0
-0.104478 0.5 0
-0.104496 0.469979 0
-0.164179 0.5 0
-0.164225 0.469839 0
-0.134328 0.5 0
-0.134359 0.469935 0
-0.164179 0.5 0
-0.19403 0.5 0
-0.164225 0.469839 0
-0.194083 0.469797 0
-0.223881 0.5 0
-0.22394 0.469753 0
-0.19403 0.5 0
-0.194083 0.469797 0
-0.253731 0.5 0
-0.253798 0.469819 0
-0.223881 0.5 0
-0.22394 0.469753 0
-0.283582 0.5 0
-0.283647 0.470019 0
-0.253731 0.5 0
-0.253798 0.469819 0
-0.313433 0.5 0
-0.313491 0.470151 0
-0.283582 0.5 0
-0.283647 0.470019 0
-0.343284 0.5 0
-0.343348 0.470381 0
-0.313433 0.5 0
-0.313491 0.470151 0
-0.343284 0.5 0
-0.373134 0.5 0
-0.343348 0.470381 0
-0.373195 0.470395 0
-0.373134 0.5 0
-0.402985 0.5 0
-0.373195 0.470395 0
-0.403049 0.470404 0
-0.432836 0.5 0
-0.432937 0.470297 0
-0.402985 0.5 0
-0.403049 0.470404 0
-0.462687 0.5 0
-0.462848 0.469995 0
-0.432836 0.5 0
-0.432937 0.470297 0
-0.492537 0.5 0
-0.492807 0.469765 0
-0.462687 0.5 0
-0.462848 0.469995 0
-0.522388 0.5 0
-0.52276 0.46958 0
-0.492537 0.5 0
-0.492807 0.469765 0
-0.552239 0.5 0
-0.55273 0.469652 0
-0.522388 0.5 0
-0.52276 0.46958 0
-0.58209 0.5 0
-0.582662 0.469731 0
-0.552239 0.5 0
-0.55273 0.469652 0
-0.61194 0.5 0
-0.612594 0.469999 0
-0.58209 0.5 0
-0.582662 0.469731 0
-0.641791 0.5 0
-0.642647 0.470419 0
-0.61194 0.5 0
-0.612594 0.469999 0
-0.671642 0.5 0
-0.672638 0.470543 0
-0.641791 0.5 0
-0.642647 0.470419 0
-0.701493 0.5 0
-0.702968 0.4698 0
-0.671642 0.5 0
-0.672638 0.470543 0
-0.820896 0.5 0
-0.822797 0.47207 0
-0.791045 0.5 0
-0.795702 0.469563 0
0.31 -0.5 0
0.309694 -0.471123 0
0.28 -0.5 0
0.279811 -0.471266 0
0.31 -0.5 0
0.34 -0.5 0
0.309694 -0.471123 0
0.339686 -0.471033 0
0.37 -0.5 0
0.369721 -0.471055 0
0.34 -0.5 0
0.339686 -0.471033 0
0.37 -0.5 0
0.4 -0.5 0
0.369721 -0.471055 0
0.399756 -0.470957 0
0.4 -0.5 0
0.43 -0.5 0
0.399756 -0.470957 0
0.429805 -0.470822 0
0.43 -0.5 0
0.46 -0.5 0
0.429805 -0.470822 0
0.459835 -0.470712 0
0.46 -0.5 0
0.49 -0.5 0
0.459835 -0.470712 0
0.489873 -0.470554 0
0.49 -0.5 0
0.52 -0.5 0
0.489873 -0.470554 0
0.519906 -0.470379 0
0.52 -0.5 0
0.55 -0.5 0
0.519906 -0.470379 0
0.54993 -0.470248 0
0.55 -0.5 0
0.58 -0.5 0
0.54993 -0.470248 0
0.579948 -0.470155 0
0.58 -0.5 0
0.61 -0.5 0
0.579948 -0.470155 0
0.609962 -0.470091 0
0.61 -0.5 0
0.64 -0.5 0
0.609962 -0.470091 0
0.639972 -0.47005 0
0.64 -0.5 0
0.67 -0.5 0
0.639972 -0.47005 0
0.66998 -0.470026 0
0.67 -0.5 0
0.7 -0.5 0
0.66998 -0.470026 0
0.699986 -0.470013 0
0.7 -0.5 0
0.73 -0.5 0
0.699986 -0.470013 0
0.72999 -0.470006 0
0.73 -0.5 0
0.76 -0.5 0
0.72999 -0.470006 0
0.759994 -0.470003 0
0.76 -0.5 0
0.79 -0.5 0
0.759994 -0.470003 0
0.78998 -0.469916 0
0.79 -0.5 0
0.82 -0.5 0
0.78998 -0.469916 0
0.819956 -0.469877 0
0.82 -0.5 0
0.85 -0.5 0
0.819956 -0.469877 0
0.849929 -0.469833 0
0.85 -0.5 0
0.88 -0.5 0
0.849929 -0.469833 0
0.879924 -0.469805 0
0.88 -0.5 0
0.91 -0.5 0
0.879924 -0.469805 0
0.909913 -0.469792 0
0.91 -0.5 0
0.94 -0.5 0
0.909913 -0.469792 0
0.939922 -0.469775 0
0.94 -0.5 0
0.97 -0.5 0
0.939922 -0.469775 0
0.969956 -0.46974 0
0.97 -0.5 0
1 -0.5 0
0.969956 -0.46974 0
1 -0.469697 0
-0.638298 0.138298 0
-0.616915 0.16063 0
-0.659574 0.159574 0
-0.638233 0.18203 0
-0.617021 0.117021 0
-0.595665 0.139192 0
-0.638298 0.138298 0
-0.616915 0.16063 0
-0.617021 0.117021 0
-0.595745 0.095745 0
-0.595665 0.139192 0
-0.574431 0.117764 0
-0.595745 0.095745 0
-0.574468 0.074468 0
-0.574431 0.117764 0
-0.553204 0.096309 0
-0.553191 0.053191 0
-0.53184 0.075023 0
-0.574468 0.074468 0
-0.553204 0.096309 0
-0.553191 0.053191 0
-0.531915 0.031915 0
-0.53184 0.075023 0
-0.510492 0.053733 0
-0.531915 0.031915 0
-0.510638 0.010638 0
-0.510492 0.053733 0
-0.489127 0.032461 0
-0.510638 0.010638 0
-0.489362 -0.010638 0
-0.489127 0.032461 0
-0.467791 0.011178 0
-0.489362 -0.010638 0
-0.468085 -0.031915 0
-0.467791 0.011178 0
-0.446536 -0.010172 0
-0.446809 -0.053191 0
-0.42524 -0.031466 0
-0.468085 -0.031915 0
-0.446536 -0.010172 0
-0.425532 -0.074468 0
-0.404012 -0.052824 0
-0.446809 -0.053191 0
-0.42524 -0.031466 0
-0.425532 -0.074468 0
-0.404255 -0.095745 0
-0.404012 -0.052824 0
-0.382783 -0.074175 0
-0.404255 -0.095745 0
-0.382979 -0.117021 0
-0.382783 -0.074175 0
-0.361545 -0.095511 0
-0.382979 -0.117021 0
-0.361702 -0.138298 0
-0.361545 -0.095511 0
-0.340288 -0.116831 0
-0.361702 -0.138298 0
-0.340426 -0.159574 0
-0.340288 -0.116831 0
-0.319034 -0.138159 0
-0.340426 -0.159574 0
-0.319149 -0.180851 0
-0.319034 -0.138159 0
-0.297766 -0.159484 0
-0.319149 -0.180851 0
-0.297872 -0.202128 0
-0.297766 -0.159484 0
-0.276489 -0.180797 0
-0.297872 -0.202128 0
-0.276596 -0.223404 0
-0.276489 -0.180797 0
-0.255087 -0.202105 0
-0.255319 -0.244681 0
-0.233674 -0.223466 0
-0.276596 -0.223404 0
-0.255087 -0.202105 0
-0.234043 -0.265957 0
-0.212119 -0.244916 0
-0.255319 -0.244681 0
-0.233674 -0.223466 0
-0.234043 -0.265957 0
-0.212766 -0.287234 0
-0.212119 -0.244916 0
-0.190657 -0.266392 0
-0.191489 -0.308511 0
-0.169261 -0.287934 0
-0.212766 -0.287234 0
-0.190657 -0.266392 0
-0.170213 -0.329787 0
-0.147854 -0.309624 0
-0.191489 -0.308511 0
-0.169261 -0.287934 0
-0.170213 -0.329787 0
-0.148936 -0.351064 0
-0.147854 -0.309624 0
-0.126431 -0.331364 0
-0.12766 -0.37234 0
-0.105256 -0.353368 0
-0.148936 -0.351064 0
-0.126431 -0.331364 0
-0.12766 -0.37234 0
-0.106383 -0.393617 0
-0.105256 -0.353368 0
-0.083924 -0.375263 0
-0.106383 -0.393617 0
-0.085106 -0.414894 0
-0.083924 -0.375263 0
-0.062097 -0.396824 0
-0.085106 -0.414894 0
-0.06383 -0.43617 0
-0.062097 -0.396824 0
-0.040132 -0.418076 0
-0.06383 -0.43617 0
-0.042553 -0.457447 0
-0.040132 -0.418076 0
-0.019646 -0.439891 0
-0.042553 -0.457447 0
-0.021277 -0.478723 0
-0.019646 -0.439891 0
-0.002475 -0.461393 0
-0.021277 -0.478723 0
0 -0.5 0
-0.002475 -0.461393 0
0.009599 -0.478226 0
0 -0.5 0
0.03 -0.5 0
0.009599 -0.478226 0
0.029922 -0.474701 0
0.03 -0.5 0
[...]
POINT_DATA 7324
VECTORS momentum double
0.000459115 -0.000576818 0
0.00134664 -0.00181019 0
0.00791842 -0.000895114 0
0.00872714 0.00252419 0
-6.1926e-05 -0.000400812 0
7.10495e-05 -0.000403442 0
-5.31126e-06 -0.000903586 0
6.34257e-05 -0.000862821 0
-0.000195401 -0.000542026 0
-5.31126e-06 -0.000903586 0
7.44886e-05 -0.000579589 0
6.34257e-05 -0.000862821 0
-4.57432e-05 -0.000972563 0
-0.000195401 -0.000542026 0
-1.49828e-06 -0.00107642 0
7.44886e-05 -0.000579589 0
2.99923e-05 -0.000662271 0
-4.57432e-05 -0.000972563 0
-1.30631e-05 -0.000763215 0
-1.49828e-06 -0.00107642 0
4.27588e-05 -0.000978486 0
2.99923e-05 -0.000662271 0
-4.04016e-05 -0.000989362 0
-1.30631e-05 -0.000763215 0
0.000159074 -0.000717798 0
4.27588e-05 -0.000978486 0
7.88307e-06 -0.000670194 0
-4.04016e-05 -0.000989362 0
4.11588e-06 -0.00123138 0
0.000159074 -0.000717798 0
-5.62744e-05 -0.000604157 0
7.88307e-06 -0.000670194 0
-0.000499644 -0.000765987 0
4.11588e-06 -0.00123138 0
-0.000744475 -0.000948835 0
-5.62744e-05 -0.000604157 0
-0.000365939 -0.00126741 0
-0.000744475 -0.000948835 0
-6.79262e-05 -0.000428246 0
-5.62744e-05 -0.000604157 0
-0.000196155 -0.00133917 0
-0.000365939 -0.00126741 0
-0.000527673 -0.000496513 0
-6.79262e-05 -0.000428246 0
2.44532e-05 -0.000832134 0
-0.000196155 -0.00133917 0
-0.000229454 -0.000471811 0
-0.000527673 -0.000496513 0
-3.00197e-05 -0.000564958 0
2.44532e-05 -0.000832134 0
-0.000244148 -0.000896862 0
-0.000229454 -0.000471811 0
-6.55961e-05 -0.000473274 0
-0.000244148 -0.000896862 0
1.95174e-05 -0.00035361 0
-0.000229454 -0.000471811 0
-4.08013e-05 -0.000793544 0
-6.55961e-05 -0.000473274 0
-1.72455e-05 -0.000804497 0
1.95174e-05 -0.00035361 0
7.03677e-06 -0.000447367 0
-4.08013e-05 -0.000793544 0
2.36357e-06 -0.000428282 0
-1.72455e-05 -0.000804497 0
-2.36762e-05 -0.000812611 0
7.03677e-06 -0.000447367 0
-3.76965e-06 -0.000819905 0
2.36357e-06 -0.000428282 0
2.73913e-06 -0.000416808 0
-2.36762e-05 -0.000812611 0
9.25176e-07 -0.0004085 0
-3.76965e-06 -0.000819905 0
-2.14137e-05 -0.000849797 0
2.73913e-06 -0.000416808 0
-2.49595e-06 -0.000852464 0
9.25176e-07 -0.0004085 0
7.44829e-06 -0.000380098 0
-2.14137e-05 -0.000849797 0
1.69877e-06 -0.000375221 0
-2.49595e-06 -0.000852464 0
-3.60865e-05 -0.000657095 0
-2.57448e-05 -0.00169498 0
-3.74595e-05 -0.000657256 0
-2.40976e-05 -0.00169507 0
-3.04264e-05 -0.000657641 0
-2.34569e-05 -0.0016965 0
-3.60865e-05 -0.000657095 0
-2.57448e-05 -0.00169498 0
-2.39169e-05 -0.000657259 0
-1.64815e-05 -0.0016978 0
-3.04264e-05 -0.000657641 0
-2.34569e-05 -0.0016965 0
-1.60607e-05 -0.000656385 0
-8.90695e-06 -0.00169901 0
-2.39169e-05 -0.000657259 0
-1.64815e-05 -0.0016978 0
-7.25895e-06 -0.000655729 0
1.037e-06 -0.00170067 0
-1.60607e-05 -0.000656385 0
-8.90695e-06 -0.00169901 0
2.69076e-06 -0.000654334 0
1.16336e-05 -0.00170239 0
-7.25895e-06 -0.000655729 0
1.037e-06 -0.00170067 0
1.45516e-05 -0.000653618 0
2.32819e-05 -0.00170427 0
2.69076e-06 -0.000654334 0
1.16336e-05 -0.00170239 0
2.65822e-05 -0.000652072 0
3.58354e-05 -0.00170689 0
1.45516e-05 -0.000653618 0
2.32819e-05 -0.00170427 0
4.06906e-05 -0.000650844 0
4.7495e-05 -0.00170966 0
2.65822e-05 -0.000652072 0
3.58354e-05 -0.00170689 0
5.47358e-05 -0.00065007 0
6.01196e-05 -0.00171307 0
4.06906e-05 -0.000650844 0
4.7495e-05 -0.00170966 0
7.06296e-05 -0.000648852 0
7.19006e-05 -0.00171624 0
5.47358e-05 -0.00065007 0
6.01196e-05 -0.00171307 0
8.70662e-05 -0.000648122 0
7.92466e-05 -0.00172074 0
7.06296e-05 -0.000648852 0
7.19006e-05 -0.00171624 0
8.70662e-05 -0.000648122 0
9.94821e-05 -0.000648747 0
7.92466e-05 -0.00172074 0
8.6317e-05 -0.00172575 0
0.000110304 -0.000649096 0
8.94571e-05 -0.00173263 0
9.94821e-05 -0.000648747 0
8.6317e-05 -0.00172575 0
0.000115683 -0.000651804 0
9.04872e-05 -0.00173847 0
0.000110304 -0.000649096 0
8.94571e-05 -0.00173263 0
0.000112374 -0.000654494 0
9.42883e-05 -0.00174197 0
0.000115683 -0.000651804 0
9.04872e-05 -0.00173847 0
0.000109738 -0.000655715 0
9.56447e-05 -0.00174241 0
0.000112374 -0.000654494 0
9.42883e-05 -0.00174197 0
9.77479e-05 -0.000657763 0
9.22185e-05 -0.00174139 0
0.000109738 -0.000655715 0
9.56447e-05 -0.00174241 0
7.88106e-05 -0.00065839 0
8.47756e-05 -0.00173948 0
9.77479e-05 -0.000657763 0
9.22185e-05 -0.00174139 0
6.03172e-05 -0.000657471 0
7.20462e-05 -0.00173681 0
7.88106e-05 -0.00065839 0
8.47756e-05 -0.00173948 0
4.66403e-05 -0.00065568 0
5.52488e-05 -0.00173628 0
6.03172e-05 -0.000657471 0
7.20462e-05 -0.00173681 0
3.44987e-05 -0.000655753 0
3.79391e-05 -0.00173495 0
4.66403e-05 -0.00065568 0
5.52488e-05 -0.00173628 0
2.16087e-05 -0.000655554 0
2.59841e-05 -0.00173784 0
3.44987e-05 -0.000655753 0
3.79391e-05 -0.00173495 0
1.08063e-05 -0.000655714 0
1.00511e-05 -0.00173848 0
2.16087e-05 -0.000655554 0
2.59841e-05 -0.00173784 0
5.65608e-06 -0.000657051 0
-1.6531e-06 -0.00173616 0
1.08063e-05 -0.000655714 0
1.00511e-05 -0.00173848 0
-1.15016e-05 -0.000660616 0
-1.7373e-05 -0.0017321 0
5.65608e-06 -0.000657051 0
-1.6531e-06 -0.00173616 0
-2.86414e-05 -0.00066484 0
-2.38952e-05 -0.00172657 0
-1.15016e-05 -0.000660616 0
-1.7373e-05 -0.0017321 0
-4.92588e-05 -0.000664165 0
-3.51634e-05 -0.00172612 0
-2.86414e-05 -0.00066484 0
-2.38952e-05 -0.00172657 0
-5.69355e-05 -0.000661812 0
-3.98128e-05 -0.00172683 0
-4.92588e-05 -0.000664165 0
-3.51634e-05 -0.00172612 0
-7.33715e-05 -0.000658187 0
-5.42084e-05 -0.00173038 0
-5.69355e-05 -0.000661812 0
-3.98128e-05 -0.00172683 0
-7.26247e-05 -0.000653532 0
-5.38835e-05 -0.0017331 0
-7.33715e-05 -0.000658187 0
-5.42084e-05 -0.00173038 0
-8.60005e-05 -0.000648933 0
-7.26482e-05 -0.00173691 0
-7.26247e-05 -0.000653532 0
-5.38835e-05 -0.0017331 0
-7.4764e-05 -0.00064719 0
-6.88225e-05 -0.00173279 0
-8.60005e-05 -0.000648933 0
-7.26482e-05 -0.00173691 0
-9.48953e-05 -0.000646573 0
-8.95667e-05 -0.00172928 0
-7.4764e-05 -0.00064719 0
-6.88225e-05 -0.00173279 0
-8.16666e-05 -0.000645397 0
-8.07594e-05 -0.00171139 0
-9.48953e-05 -0.000646573 0
-8.95667e-05 -0.00172928 0
-0.000127931 -0.000645381 0
-0.000134541 -0.00168766 0
-8.16666e-05 -0.000645397 0
-8.07594e-05 -0.00171139 0
-0.000158224 -0.000645859 0
-0.000163767 -0.00163472 0
-0.000127931 -0.000645381 0
-0.000134541 -0.00168766 0
-0.000313591 -0.00064723 0
-0.000305249 -0.00156427 0
-0.000158224 -0.000645859 0
-0.000163767 -0.00163472 0
-0.000458961 -0.000647372 0
-0.000439379 -0.00143919 0
-0.000313591 -0.00064723 0
-0.000305249 -0.00156427 0
-0.000458961 -0.000647372 0
-0.000832111 -0.000647524 0
-0.000439379 -0.00143919 0
-0.000773354 -0.0012813 0
-0.0012351 -0.000637094 0
-0.00113299 -0.00103065 0
-0.000832111 -0.000647524 0
-0.000773354 -0.0012813 0
-0.00203524 -0.000623961 0
-0.00186255 -0.0007153 0
-0.0012351 -0.000637094 0
-0.00113299 -0.00103065 0
-0.00296676 -0.000598129 0
-0.00275215 -0.000208513 0
-0.00203524 -0.000623961 0
-0.00186255 -0.0007153 0
-0.00464405 -0.000571937 0
-0.00434883 0.000399041 0
-0.00296676 -0.000598129 0
-0.00275215 -0.000208513 0
-0.00671477 -0.000526963 0
-0.00639581 0.00134107 0
-0.00464405 -0.000571937 0
-0.00434883 0.000399041 0
-0.00671477 -0.000526963 0
-0.0101922 -0.000483353 0
-0.00639581 0.00134107 0
-0.00977677 0.00245572 0
-0.0101922 -0.000483353 0
-0.014613 -0.000415384 0
-0.00977677 0.00245572 0
-0.0142238 0.00419845 0
-0.0216376 -0.000366063 0
-0.0210909 0.00617234 0
-0.014613 -0.000415384 0
-0.0142238 0.00419845 0
-0.0305443 -0.000263742 0
-0.0301083 0.00929467 0
-0.0216376 -0.000366063 0
-0.0210909 0.00617234 0
-0.0439625 -0.000217906 0
-0.0431671 0.0126034 0
-0.0305443 -0.000263742 0
-0.0301083 0.00929467 0
-0.060379 -3.70019e-05 0
-0.0599714 0.0176762 0
-0.0439625 -0.000217906 0
-0.0431671 0.0126034 0
-0.084078 -3.93062e-05 0
-0.082857 0.0225201 0
-0.060379 -3.70019e-05 0
-0.0599714 0.0176762 0
-0.111801 0.000320747 0
-0.111777 0.0309081 0
-0.084078 -3.93062e-05 0
-0.082857 0.0225201 0
-0.151978 0.000141786 0
-0.149092 0.0375789 0
-0.111801 0.000320747 0
-0.111777 0.0309081 0
-0.195707 0.00117659 0
-0.196176 0.0522082 0
-0.151978 0.000141786 0
-0.149092 0.0375789 0
-0.261571 0.00151383 0
-0.252129 0.0537416 0
-0.195707 0.00117659 0
-0.196176 0.0522082 0
-0.29762 0.000169787 0
-0.315611 0.0377428 0
-0.261571 0.00151383 0
-0.252129 0.0537416 0
-0.112119 -0.00432341 0
-0.0955991 -0.033208 0
-0.175119 -0.00213309 0
-0.152602 -0.0816181 0
-3.48038e-06 -0.000390249 0
-3.17318e-05 -0.000847947 0
7.44829e-06 -0.000380098 0
-2.14137e-05 -0.000849797 0
-3.48038e-06 -0.000390249 0
-2.10194e-05 -0.000397781 0
-3.17318e-05 -0.000847947 0
-3.49853e-05 -0.000847417 0
-3.41222e-05 -0.000401335 0
-4.38124e-05 -0.000847749 0
-2.10194e-05 -0.000397781 0
-3.49853e-05 -0.000847417 0
-3.41222e-05 -0.000401335 0
-3.95203e-05 -0.000405126 0
-4.38124e-05 -0.000847749 0
-5.20152e-05 -0.000847602 0
-3.95203e-05 -0.000405126 0
-4.54412e-05 -0.000407763 0
-5.20152e-05 -0.000847602 0
-5.75045e-05 -0.000849692 0
-4.54412e-05 -0.000407763 0
-5.17153e-05 -0.000409998 0
-5.75045e-05 -0.000849692 0
-6.1149e-05 -0.000852662 0
-5.17153e-05 -0.000409998 0
-5.63492e-05 -0.000410339 0
-6.1149e-05 -0.000852662 0
-6.78837e-05 -0.000856947 0
-5.63492e-05 -0.000410339 0
-6.19854e-05 -0.000412821 0
-6.78837e-05 -0.000856947 0
-7.61716e-05 -0.000860177 0
-6.19854e-05 -0.000412821 0
-7.05451e-05 -0.000414977 0
-7.61716e-05 -0.000860177 0
-8.18425e-05 -0.000862762 0
-7.05451e-05 -0.000414977 0
-7.97803e-05 -0.00041699 0
-8.18425e-05 -0.000862762 0
-8.76994e-05 -0.000865012 0
-7.97803e-05 -0.00041699 0
-8.77107e-05 -0.000418077 0
-8.76994e-05 -0.000865012 0
-9.2844e-05 -0.000866486 0
-8.77107e-05 -0.000418077 0
-9.48789e-05 -0.000419222 0
-9.2844e-05 -0.000866486 0
-9.77648e-05 -0.000867508 0
-9.48789e-05 -0.000419222 0
-9.98444e-05 -0.00041954 0
-9.77648e-05 -0.000867508 0
-0.000100444 -0.000868152 0
-9.98444e-05 -0.00041954 0
-0.000103444 -0.000419875 0
-0.000100444 -0.000868152 0
-0.000102871 -0.000868834 0
-0.000103444 -0.000419875 0
-0.000103597 -0.000419989 0
-0.000102871 -0.000868834 0
-0.000103173 -0.000869938 0
-0.000103597 -0.000419989 0
-0.00010068 -0.000420199 0
-0.000103173 -0.000869938 0
-0.00010373 -0.000871815 0
-0.00010068 -0.000420199 0
-9.70356e-05 -0.000420918 0
-0.00010373 -0.000871815 0
-0.000102001 -0.000873276 0
-9.70356e-05 -0.000420918 0
-9.39304e-05 -0.000421817 0
-0.000102001 -0.000873276 0
-9.83677e-05 -0.000875488 0
-9.39304e-05 -0.000421817 0
-8.92344e-05 -0.000422773 0
-9.83677e-05 -0.000875488 0
-9.29145e-05 -0.000877922 0
-8.92344e-05 -0.000422773 0
-8.59565e-05 -0.000423545 0
-9.29145e-05 -0.000877922 0
-8.8126e-05 -0.000880385 0
-8.59565e-05 -0.000423545 0
-8.03043e-05 -0.000423863 0
-8.8126e-05 -0.000880385 0
-8.20272e-05 -0.000883021 0
-8.03043e-05 -0.000423863 0
-7.49968e-05 -0.000424361 0
-8.20272e-05 -0.000883021 0
-7.67029e-05 -0.000885127 0
-7.49968e-05 -0.000424361 0
-6.74002e-05 -0.000424435 0
-7.67029e-05 -0.000885127 0
-6.92713e-05 -0.000886794 0
-6.74002e-05 -0.000424435 0
-6.13899e-05 -0.000424426 0
-6.92713e-05 -0.000886794 0
-6.39914e-05 -0.000887574 0
0.14563 -0.140155 0
0.169548 -0.08314 0
0.231627 -0.224645 0
0.256362 -0.0897947 0
0.102334 -0.10142 0
0.119364 -0.070715 0
0.14563 -0.140155 0
0.169548 -0.08314 0
0.102334 -0.10142 0
0.0784179 -0.0779565 0
0.119364 -0.070715 0
0.0893955 -0.0593874 0
0.0784179 -0.0779565 0
0.0621238 -0.0620938 0
0.0893955 -0.0593874 0
0.0693343 -0.0497491 0
0.0506033 -0.0507194 0
0.0553627 -0.0422077 0
0.0621238 -0.0620938 0
0.0693343 -0.0497491 0
0.0506033 -0.0507194 0
0.0415805 -0.0418329 0
0.0553627 -0.0422077 0
0.0447933 -0.0356824 0
0.0415805 -0.0418329 0
0.0343667 -0.0346787 0
0.0447933 -0.0356824 0
0.0364662 -0.0302389 0
0.0343667 -0.0346787 0
0.0282851 -0.0286511 0
0.0364662 -0.0302389 0
0.0296384 -0.0253602 0
0.0282851 -0.0286511 0
0.023147 -0.0235416 0
0.0296384 -0.0253602 0
0.0239243 -0.0211361 0
0.0187275 -0.0191473 0
0.0191165 -0.0173578 0
0.023147 -0.0235416 0
0.0239243 -0.0211361 0
0.0149925 -0.0154323 0
0.0150803 -0.0141266 0
0.0187275 -0.0191473 0
0.0191165 -0.0173578 0
0.0149925 -0.0154323 0
0.011837 -0.0122916 0
0.0150803 -0.0141266 0
0.0117249 -0.0113376 0
0.011837 -0.0122916 0
0.0092565 -0.00972134 0
0.0117249 -0.0113376 0
0.0089932 -0.0090343 0
0.0092565 -0.00972134 0
0.00714786 -0.00761739 0
0.0089932 -0.0090343 0
0.00678514 -0.00712888 0
0.00714786 -0.00761739 0
0.00549908 -0.00597016 0
0.00678514 -0.00712888 0
0.00505899 -0.00562586 0
0.00549908 -0.00597016 0
0.00419501 -0.00466623 0
0.00505899 -0.00562586 0
0.00370746 -0.00442757 0
0.00419501 -0.00466623 0
0.00322621 -0.00369476 0
0.00370746 -0.00442757 0
0.00270281 -0.00352713 0
0.00322621 -0.00369476 0
0.00247301 -0.00294159 0
0.00270281 -0.00352713 0
0.00192959 -0.00283378 0
0.00194705 -0.00240346 0
0.00138866 -0.0023435 0
0.00247301 -0.00294159 0
0.00192959 -0.00283378 0
0.00153765 -0.00198585 0
0.000946602 -0.0019592 0
0.00194705 -0.00240346 0
0.00138866 -0.0023435 0
0.00153765 -0.00198585 0
0.00127358 -0.00172412 0
0.000946602 -0.0019592 0
0.000673822 -0.0016953 0
0.00104227 -0.00150669 0
0.000443413 -0.00147319 0
0.00127358 -0.00172412 0
0.000673822 -0.0016953 0
0.000912518 -0.00140529 0
0.000369943 -0.00134732 0
0.00104227 -0.00150669 0
0.000443413 -0.00147319 0
0.000912518 -0.00140529 0
0.000761974 -0.00125531 0
0.000369943 -0.00134732 0
0.000248286 -0.00125566 0
0.000756958 -0.00123519 0
0.000233233 -0.001252 0
0.000761974 -0.00125531 0
0.000248286 -0.00125566 0
0.000756958 -0.00123519 0
0.000694346 -0.0011724 0
0.000233233 -0.001252 0
0.000135708 -0.00118269 0
0.000694346 -0.0011724 0
0.000735842 -0.00123092 0
0.000135708 -0.00118269 0
0.000239515 -0.00122533 0
0.000735842 -0.00123092 0
0.000608708 -0.00110546 0
0.000239515 -0.00122533 0
0.000170757 -0.00105348 0
0.000608708 -0.00110546 0
0.000470102 -0.000936607 0
0.000170757 -0.00105348 0
0.000412332 -0.00122792 0
0.000470102 -0.000936607 0
0.000342496 -0.000657615 0
0.000412332 -0.00122792 0
0.000207965 -0.000625266 0
0.000342496 -0.000657615 0
0.000175032 -0.000475938 0
0.000207965 -0.000625266 0
0.000119513 -0.000946702 0
0.000175032 -0.000475938 0
0.000403704 -0.000283694 0
0.000119513 -0.000946702 0
0.000282481 -0.000760725 0
0.000403704 -0.000283694 0
0.000310648 -0.0003708 0
0.000282481 -0.000760725 0
-0.000116765 -0.00084545 0
0.000310648 -0.0003708 0
0.000214133 -0.000447654 0
-0.000116765 -0.00084545 0
0.000135358 -0.000791509 0
0.000214133 -0.000447654 0
-6.1926e-05 -0.000400812 0
0.000135358 -0.000791509 0
-5.31126e-06 -0.000903586 0
-6.92713e-05 -0.000886794 0
-6.39914e-05 -0.000887574 0
-7.12841e-05 -0.000521459 0
-6.66822e-05 -0.0005248 0
-7.12841e-05 -0.000521459 0
-6.66822e-05 -0.0005248 0
-7.60878e-05 -0.000879597 0
-7.2167e-05 -0.000882271 0
-7.60878e-05 -0.000879597 0
-7.2167e-05 -0.000882271 0
-8.28019e-05 -0.000613783 0
-7.82682e-05 -0.00061778 0
-8.28019e-05 -0.000613783 0
-7.82682e-05 -0.00061778 0
-9.00085e-05 -0.000890852 0
-8.75662e-05 -0.0008959 0
-9.00085e-05 -0.000890852 0
-8.75662e-05 -0.0008959 0
-9.9799e-05 -0.000704771 0
-9.65138e-05 -0.000710307 0
-9.9799e-05 -0.000704771 0
-9.65138e-05 -0.000710307 0
-0.000109302 -0.000923532 0
-0.000107358 -0.000930394 0
-0.000121852 -0.000805394 0
-0.000109302 -0.000923532 0
-0.000119239 -0.000813172 0
-0.000107358 -0.000930394 0
-0.000121852 -0.000805394 0
-0.000119239 -0.000813172 0
-0.000135367 -0.000985218 0
-0.000133089 -0.000994166 0
-0.000135367 -0.000985218 0
-0.000133089 -0.000994166 0
-0.000151895 -0.000927591 0
-0.00014931 -0.000938287 0
-0.000151895 -0.000927591 0
-0.00014931 -0.000938287 0
-0.000171625 -0.00108228 0
-0.000169697 -0.00109451 0
-0.000171625 -0.00108228 0
-0.000169697 -0.00109451 0
-0.000195269 -0.00107691 0
-0.000194383 -0.00109178 0
-0.000195269 -0.00107691 0
-0.000194383 -0.00109178 0
-0.000224769 -0.00120855 0
-0.000228139 -0.00122613 0
-0.000224769 -0.00120855 0
-0.000228139 -0.00122613 0
-0.000259262 -0.00123835 0
-0.000269061 -0.00125882 0
-0.000259262 -0.00123835 0
-0.000269061 -0.00125882 0
-0.00029986 -0.00133208 0
-0.000321279 -0.00135544 0
-0.00029986 -0.00133208 0
-0.000321279 -0.00135544 0
-0.000342536 -0.00136916 0
-0.000379856 -0.00139341 0
-0.000342536 -0.00136916 0
-0.000379856 -0.00139341 0
-0.000383686 -0.0013974 0
-0.00044078 -0.00142002 0
-0.000383686 -0.0013974 0
-0.00044078 -0.00142002 0
-0.000413865 -0.00141537 0
-0.000490634 -0.00143113 0
-0.000413865 -0.00141537 0
-0.000490634 -0.00143113 0
-0.000424885 -0.00135938 0
-0.00051455 -0.00136365 0
-0.000424885 -0.00135938 0
-0.00051455 -0.00136365 0
-0.00041027 -0.00136495 0
-0.000498803 -0.00135432 0
-0.00041027 -0.00136495 0
-0.000498803 -0.00135432 0
-0.000371389 -0.0012427 0
-0.000445011 -0.00122129 0
-0.000371389 -0.0012427 0
-0.000445011 -0.00122129 0
-0.000317321 -0.00128263 0
-0.000370001 -0.00125454 0
-0.000317321 -0.00128263 0
-0.000370001 -0.00125454 0
-0.000256355 -0.00111975 0
-0.000288723 -0.00109156 0
-0.000256355 -0.00111975 0
-0.000288723 -0.00109156 0
-0.000201328 -0.00123586 0
-0.000217285 -0.00120922 0
-0.000201328 -0.00123586 0
-0.000217285 -0.00120922 0
-0.00014867 -0.00102725 0
-0.000153858 -0.00100689 0
-0.00014867 -0.00102725 0
-0.000153858 -0.00100689 0
-0.000115128 -0.001248 0
-0.000116212 -0.00122995 0
-0.000115128 -0.001248 0
-0.000116212 -0.00122995 0
-7.89422e-05 -0.000963125 0
-7.61729e-05 -0.000948638 0
-7.89422e-05 -0.000963125 0
-7.61729e-05 -0.000948638 0
-5.79587e-05 -0.00133182 0
-5.63249e-05 -0.00132001 0
-5.79587e-05 -0.00133182 0
-5.63249e-05 -0.00132001 0
-3.21623e-05 -0.000908644 0
-2.86217e-05 -0.000901052 0
-3.21623e-05 -0.000908644 0
-2.86217e-05 -0.000901052 0
-2.88495e-05 -0.00148047 0
-2.69215e-05 -0.00147734 0
-2.88495e-05 -0.00148047 0
-2.69215e-05 -0.00147734 0
-2.30813e-05 -0.000824057 0
-2.20681e-05 -0.000821497 0
-2.30813e-05 -0.000824057 0
-2.20681e-05 -0.000821497 0
-2.57448e-05 -0.00169498 0
-2.40976e-05 -0.00169507 0
0.169548 -0.08314 0
0.161401 -0.019118 0
0.256362 -0.0897947 0
0.213872 0.015785 0
0.119364 -0.070715 0
0.119681 -0.0300728 0
0.169548 -0.08314 0
0.161401 -0.019118 0
0.119364 -0.070715 0
0.0893955 -0.0593874 0
0.119681 -0.0300728 0
0.0914728 -0.0338052 0
0.0893955 -0.0593874 0
0.0693343 -0.0497491 0
0.0914728 -0.0338052 0
0.0718948 -0.0323944 0
0.0553627 -0.0422077 0
0.057379 -0.0300964 0
0.0693343 -0.0497491 0
0.0718948 -0.0323944 0
0.0553627 -0.0422077 0
0.0447933 -0.0356824 0
0.057379 -0.0300964 0
0.0465106 -0.0269083 0
0.0447933 -0.0356824 0
0.0364662 -0.0302389 0
0.0465106 -0.0269083 0
0.0376645 -0.023659 0
0.0364662 -0.0302389 0
0.0296384 -0.0253602 0
0.0376645 -0.023659 0
0.0305827 -0.0203987 0
0.0296384 -0.0253602 0
0.0239243 -0.0211361 0
0.0305827 -0.0203987 0
0.0245582 -0.0172712 0
0.0191165 -0.0173578 0
0.01958 -0.0143822 0
0.0239243 -0.0211361 0
0.0245582 -0.0172712 0
0.0150803 -0.0141266 0
0.0153589 -0.0117886 0
0.0191165 -0.0173578 0
0.01958 -0.0143822 0
0.0150803 -0.0141266 0
0.0117249 -0.0113376 0
0.0153589 -0.0117886 0
0.0118966 -0.00950389 0
0.0117249 -0.0113376 0
0.0089932 -0.0090343 0
0.0118966 -0.00950389 0
0.00905916 -0.00756347 0
0.0089932 -0.0090343 0
0.00678514 -0.00712888 0
0.00905916 -0.00756347 0
0.00679917 -0.005938 0
0.00678514 -0.00712888 0
0.00505899 -0.00562586 0
0.00679917 -0.005938 0
0.00502898 -0.00463037 0
0.00505899 -0.00562586 0
0.00370746 -0.00442757 0
0.00502898 -0.00463037 0
0.00365634 -0.00358922 0
0.00370746 -0.00442757 0
0.00270281 -0.00352713 0
0.00365634 -0.00358922 0
0.00262186 -0.00279631 0
0.00270281 -0.00352713 0
0.00192959 -0.00283378 0
0.00262186 -0.00279631 0
0.00183989 -0.00218448 0
0.00138866 -0.0023435 0
0.00129706 -0.00171914 0
0.00192959 -0.00283378 0
0.00183989 -0.00218448 0
0.000946602 -0.0019592 0
0.000895553 -0.00138046 0
0.00138866 -0.0023435 0
0.00129706 -0.00171914 0
0.000946602 -0.0019592 0
0.000673822 -0.0016953 0
0.000895553 -0.00138046 0
0.000637952 -0.00114238 0
0.000443413 -0.00147319 0
0.000412434 -0.00100747 0
0.000673822 -0.0016953 0
0.000637952 -0.00114238 0
0.000369943 -0.00134732 0
0.000283709 -0.000914145 0
0.000443413 -0.00147319 0
0.000412434 -0.00100747 0
0.000369943 -0.00134732 0
0.000248286 -0.00125566 0