# vtk DataFile Version 3.0
#This file was generated by the deal.II library on 2016/12/20 at 10:56:43
ASCII
DATASET UNSTRUCTURED_GRID

POINTS 7264 double
-1 0.5 0
-0.978723 0.478723 0
-0.970149 0.5 0
-0.964976 0.485465 0
0.12 -0.5 0
0.15 -0.5 0
0.119014 -0.4708 0
0.15 -0.471429 0
0.11755 -0.441479 0
0.119014 -0.4708 0
0.15 -0.442857 0
0.15 -0.471429 0
0.117242 -0.412206 0
0.11755 -0.441479 0
0.15 -0.414286 0
0.15 -0.442857 0
0.118129 -0.383064 0
0.117242 -0.412206 0
0.15 -0.385714 0
0.15 -0.414286 0
0.12021 -0.354337 0
0.118129 -0.383064 0
0.15 -0.357143 0
0.15 -0.385714 0
0.121793 -0.32584 0
0.12021 -0.354337 0
0.15 -0.328571 0
0.15 -0.357143 0
0.122717 -0.296869 0
0.121793 -0.32584 0
0.15 -0.3 0
0.15 -0.328571 0
0.123759 -0.266752 0
0.122717 -0.296869 0
0.153091 -0.267708 0
0.15 -0.3 0
0.18456 -0.26795 0
0.153091 -0.267708 0
0.183333 -0.3 0
0.15 -0.3 0
0.216606 -0.268111 0
0.18456 -0.26795 0
0.216667 -0.3 0
0.183333 -0.3 0
0.24835 -0.26841 0
0.216606 -0.268111 0
0.25 -0.3 0
0.216667 -0.3 0
0.278782 -0.268564 0
0.24835 -0.26841 0
0.279437 -0.298917 0
0.25 -0.3 0
0.279638 -0.328111 0
0.279437 -0.298917 0
0.25 -0.328571 0
0.25 -0.3 0
0.27971 -0.356801 0
0.279638 -0.328111 0
0.25 -0.357143 0
0.25 -0.328571 0
0.279677 -0.385395 0
0.27971 -0.356801 0
0.25 -0.385714 0
0.25 -0.357143 0
0.279641 -0.413938 0
0.279677 -0.385395 0
0.25 -0.414286 0
0.25 -0.385714 0
0.279666 -0.442534 0
0.279641 -0.413938 0
0.25 -0.442857 0
0.25 -0.414286 0
0.279811 -0.471266 0
0.279666 -0.442534 0
0.25 -0.471429 0
0.25 -0.442857 0
0.28 -0.5 0
0.279811 -0.471266 0
0.25 -0.5 0
0.25 -0.471429 0
0.970149 0.5 0
0.970096 0.46978 0
1 0.5 0
1 0.469697 0
0.940299 0.5 0
0.940231 0.46984 0
0.970149 0.5 0
0.970096 0.46978 0
0.910448 0.5 0
0.910371 0.469856 0
0.940299 0.5 0
0.940231 0.46984 0
0.880597 0.5 0
0.880527 0.469909 0
0.910448 0.5 0
0.910371 0.469856 0
0.850746 0.5 0
0.850684 0.469926 0
0.880597 0.5 0
0.880527 0.469909 0
0.820896 0.5 0
0.820842 0.469978 0
0.850746 0.5 0
0.850684 0.469926 0
0.791045 0.5 0
0.791001 0.470016 0
0.820896 0.5 0
0.820842 0.469978 0
0.761194 0.5 0
0.761159 0.470055 0
0.791045 0.5 0
0.791001 0.470016 0
0.731343 0.5 0
0.731316 0.470091 0
0.761194 0.5 0
0.761159 0.470055 0
0.701493 0.5 0
0.701472 0.470118 0
0.731343 0.5 0
0.731316 0.470091 0
0.671642 0.5 0
0.671627 0.470134 0
0.701493 0.5 0
0.701472 0.470118 0
0.641791 0.5 0
0.64178 0.470142 0
0.671642 0.5 0
0.671627 0.470134 0
0.641791 0.5 0
0.61194 0.5 0
0.64178 0.470142 0
0.611934 0.470065 0
0.58209 0.5 0
0.582089 0.470002 0
0.61194 0.5 0
0.611934 0.470065 0
0.552239 0.5 0
0.552248 0.469853 0
0.58209 0.5 0
0.582089 0.470002 0
0.522388 0.5 0
0.522413 0.469718 0
0.552239 0.5 0
0.552248 0.469853 0
0.492537 0.5 0
0.492577 0.469656 0
0.522388 0.5 0
0.522413 0.469718 0
0.462687 0.5 0
0.462743 0.469571 0
0.492537 0.5 0
0.492577 0.469656 0
0.432836 0.5 0
0.432895 0.46963 0
0.462687 0.5 0
0.462743 0.469571 0
0.402985 0.5 0
0.403046 0.469669 0
0.432836 0.5 0
0.432895 0.46963 0
0.373134 0.5 0
0.373191 0.469745 0
0.402985 0.5 0
0.403046 0.469669 0
0.343284 0.5 0
0.343335 0.469723 0
0.373134 0.5 0
0.373191 0.469745 0
0.313433 0.5 0
0.313478 0.469741 0
0.343284 0.5 0
0.343335 0.469723 0
0.283582 0.5 0
0.283622 0.469783 0
0.313433 0.5 0
0.313478 0.469741 0
0.253731 0.5 0
0.253768 0.469742 0
0.283582 0.5 0
0.283622 0.469783 0
0.223881 0.5 0
0.223918 0.469737 0
0.253731 0.5 0
0.253768 0.469742 0
0.19403 0.5 0
0.194064 0.46981 0
0.223881 0.5 0
0.223918 0.469737 0
0.164179 0.5 0
0.16421 0.469881 0
0.19403 0.5 0
0.194064 0.46981 0
0.134328 0.5 0
0.134355 0.46994 0
0.164179 0.5 0
0.16421 0.469881 0
0.104478 0.5 0
0.1045 0.469997 0
0.134328 0.5 0
0.134355 0.46994 0
0.074627 0.5 0
0.074645 0.470051 0
0.104478 0.5 0
0.1045 0.469997 0
0.044776 0.5 0
0.04479 0.470093 0
0.074627 0.5 0
0.074645 0.470051 0
0.014925 0.5 0
0.014935 0.47012 0
0.044776 0.5 0
0.04479 0.470093 0
-0.014925 0.5 0
-0.014918 0.470135 0
0.014925 0.5 0
0.014935 0.47012 0
-0.044776 0.5 0
-0.044771 0.470143 0
-0.014925 0.5 0
-0.014918 0.470135 0
-0.074627 0.5 0
-0.074623 0.470146 0
-0.044776 0.5 0
-0.044771 0.470143 0
-0.104478 0.5 0
-0.104496 0.469979 0
-0.074627 0.5 0
-0.074623 0.470146 0
-0.134328 0.5 0
-0.134359 0.469935 0
-0.104478 0.5 0
-0.104496 0.469979 0
-0.164179 0.5 0
-0.164225 0.469839 0
-0.134328 0.5 0
-0.134359 0.469935 0
-0.164179 0.5 0
-0.19403 0.5 0
-0.164225 0.469839 0
-0.194083 0.469797 0
-0.223881 0.5 0
-0.22394 0.469753 0
-0.19403 0.5 0
-0.194083 0.469797 0
-0.253731 0.5 0
-0.253798 0.469819 0
-0.223881 0.5 0
-0.22394 0.469753 0
-0.283582 0.5 0
-0.283647 0.470019 0
-0.253731 0.5 0
-0.253798 0.469819 0
-0.313433 0.5 0
-0.313491 0.470151 0
-0.283582 0.5 0
-0.283647 0.470019 0
-0.343284 0.5 0
-0.343348 0.470381 0
-0.313433 0.5 0
-0.313491 0.470151 0
-0.343284 0.5 0
-0.373134 0.5 0
-0.343348 0.470381 0
-0.373195 0.470395 0
-0.373134 0.5 0
-0.402985 0.5 0
-0.373195 0.470395 0
-0.403049 0.470404 0
-0.432836 0.5 0
-0.432937 0.470297 0
-0.402985 0.5 0
-0.403049 0.470404 0
-0.462687 0.5 0
-0.462848 0.469995 0
-0.432836 0.5 0
-0.432937 0.470297 0
-0.492537 0.5 0
-0.492807 0.469765 0
-0.462687 0.5 0
-0.462848 0.469995 0
-0.522388 0.5 0
-0.52276 0.46958 0
-0.492537 0.5 0
-0.492807 0.469765 0
-0.552239 0.5 0
-0.55273 0.469652 0
-0.522388 0.5 0
-0.52276 0.46958 0
-0.58209 0.5 0
-0.582662 0.469731 0
-0.552239 0.5 0
-0.55273 0.469652 0
-0.61194 0.5 0
-0.612594 0.469999 0
-0.58209 0.5 0
-0.582662 0.469731 0
-0.641791 0.5 0
-0.642647 0.470419 0
-0.61194 0.5 0
-0.612594 0.469999 0
-0.671642 0.5 0
-0.672638 0.470543 0
-0.641791 0.5 0
-0.642647 0.470419 0
-0.701493 0.5 0
-0.702968 0.4698 0
-0.671642 0.5 0
-0.672638 0.470543 0
-0.820896 0.5 0
-0.822797 0.47207 0
-0.791045 0.5 0
-0.795702 0.469563 0
0.31 -0.5 0
0.309694 -0.471123 0
0.28 -0.5 0
0.279811 -0.471266 0
0.31 -0.5 0
0.34 -0.5 0
0.309694 -0.471123 0
0.339686 -0.471033 0
0.37 -0.5 0
0.369721 -0.471055 0
0.34 -0.5 0
0.339686 -0.471033 0
0.37 -0.5 0
0.4 -0.5 0
0.369721 -0.471055 0
0.399756 -0.470957 0
0.4 -0.5 0
0.43 -0.5 0
0.399756 -0.470957 0
0.429805 -0.470822 0
0.43 -0.5 0
0.46 -0.5 0
0.429805 -0.470822 0
0.459835 -0.470712 0
0.46 -0.5 0
0.49 -0.5 0
0.459835 -0.470712 0
0.489873 -0.470554 0
0.49 -0.5 0
0.52 -0.5 0
0.489873 -0.470554 0
0.519906 -0.470379 0
0.52 -0.5 0
0.55 -0.5 0
0.519906 -0.470379 0
0.54993 -0.470248 0
0.55 -0.5 0
0.58 -0.5 0
0.54993 -0.470248 0
0.579948 -0.470155 0
0.58 -0.5 0
0.61 -0.5 0
0.579948 -0.470155 0
0.609962 -0.470091 0
0.61 -0.5 0
0.64 -0.5 0
0.609962 -0.470091 0
0.639972 -0.47005 0
0.64 -0.5 0
0.67 -0.5 0
0.639972 -0.47005 0
0.66998 -0.470026 0
0.67 -0.5 0
0.7 -0.5 0
0.66998 -0.470026 0
0.699986 -0.470013 0
0.7 -0.5 0
0.73 -0.5 0
0.699986 -0.470013 0
0.72999 -0.470006 0
0.73 -0.5 0
0.76 -0.5 0
0.72999 -0.470006 0
0.759994 -0.470003 0
0.76 -0.5 0
0.79 -0.5 0
0.759994 -0.470003 0
0.78998 -0.469916 0
0.79 -0.5 0
0.82 -0.5 0
0.78998 -0.469916 0
0.819956 -0.469877 0
0.82 -0.5 0
0.85 -0.5 0
0.819956 -0.469877 0
0.849929 -0.469833 0
0.85 -0.5 0
0.88 -0.5 0
0.849929 -0.469833 0
0.879924 -0.469805 0
0.88 -0.5 0
0.91 -0.5 0
0.879924 -0.469805 0
0.909913 -0.469792 0
0.91 -0.5 0
0.94 -0.5 0
0.909913 -0.469792 0
0.939922 -0.469775 0
0.94 -0.5 0
0.97 -0.5 0
0.939922 -0.469775 0
0.969956 -0.46974 0
0.97 -0.5 0
1 -0.5 0
0.969956 -0.46974 0
1 -0.469697 0
-0.702128 0.202128 0
-0.680976 0.2243 0
-0.723404 0.223404 0
-0.702394 0.245107 0
-0.702128 0.202128 0
-0.680851 0.180851 0
-0.680976 0.2243 0
-0.659597 0.203254 0
-0.680851 0.180851 0
-0.659574 0.159574 0
-0.659597 0.203254 0
-0.638233 0.18203 0
-0.638298 0.138298 0
-0.616915 0.16063 0
-0.659574 0.159574 0
-0.638233 0.18203 0
-0.617021 0.117021 0
-0.595665 0.139192 0
-0.638298 0.138298 0
-0.616915 0.16063 0
-0.617021 0.117021 0
-0.595745 0.095745 0
-0.595665 0.139192 0
-0.574431 0.117764 0
-0.595745 0.095745 0
-0.574468 0.074468 0
-0.574431 0.117764 0
-0.553204 0.096309 0
-0.553191 0.053191 0
-0.53184 0.075023 0
-0.574468 0.074468 0
-0.553204 0.096309 0
-0.553191 0.053191 0
-0.531915 0.031915 0
-0.53184 0.075023 0
-0.510492 0.053733 0
-0.531915 0.031915 0
-0.510638 0.010638 0
-0.510492 0.053733 0
-0.489127 0.032461 0
-0.510638 0.010638 0
-0.489362 -0.010638 0
-0.489127 0.032461 0
-0.467791 0.011178 0
-0.489362 -0.010638 0
-0.468085 -0.031915 0
-0.467791 0.011178 0
-0.446536 -0.010172 0
-0.446809 -0.053191 0
-0.42524 -0.031466 0
-0.468085 -0.031915 0
-0.446536 -0.010172 0
-0.425532 -0.074468 0
-0.404012 -0.052824 0
-0.446809 -0.053191 0
-0.42524 -0.031466 0
-0.425532 -0.074468 0
-0.404255 -0.095745 0
-0.404012 -0.052824 0
-0.382783 -0.074175 0
-0.404255 -0.095745 0
-0.382979 -0.117021 0
-0.382783 -0.074175 0
-0.361545 -0.095511 0
-0.382979 -0.117021 0
-0.361702 -0.138298 0
-0.361545 -0.095511 0
-0.340288 -0.116831 0
-0.361702 -0.138298 0
-0.340426 -0.159574 0
-0.340288 -0.116831 0
-0.319034 -0.138159 0
-0.340426 -0.159574 0
-0.319149 -0.180851 0
-0.319034 -0.138159 0
-0.297766 -0.159484 0
-0.319149 -0.180851 0
-0.297872 -0.202128 0
-0.297766 -0.159484 0
-0.276489 -0.180797 0
-0.297872 -0.202128 0
-0.276596 -0.223404 0
-0.276489 -0.180797 0
-0.255087 -0.202105 0
-0.255319 -0.244681 0
-0.233674 -0.223466 0
-0.276596 -0.223404 0
-0.255087 -0.202105 0
-0.234043 -0.265957 0
-0.212119 -0.244916 0
-0.255319 -0.244681 0
-0.233674 -0.223466 0
-0.234043 -0.265957 0
-0.212766 -0.287234 0
-0.212119 -0.244916 0
-0.190657 -0.266392 0
-0.191489 -0.308511 0
-0.169261 -0.287934 0
-0.212766 -0.287234 0
-0.190657 -0.266392 0
-0.170213 -0.329787 0
-0.147854 -0.309624 0
-0.191489 -0.308511 0
-0.169261 -0.287934 0
-0.170213 -0.329787 0
-0.148936 -0.351064 0
-0.147854 -0.309624 0
-0.126431 -0.331364 0
-0.12766 -0.37234 0
-0.105256 -0.353368 0
-0.148936 -0.351064 0
-0.126431 -0.331364 0
-0.12766 -0.37234 0
-0.106383 -0.393617 0
-0.105256 -0.353368 0
-0.083924 -0.375263 0
-0.106383 -0.393617 0
-0.085106 -0.414894 0
-0.083924 -0.375263 0
-0.062097 -0.396824 0
-0.085106 -0.414894 0
-0.06383 -0.43617 0
-0.062097 -0.396824 0
-0.040132 -0.418076 0
-0.06383 -0.43617 0
-0.042553 -0.457447 0
-0.040132 -0.418076 0
-0.019646 -0.439891 0
[...]
POINT_DATA 7264
VECTORS momentum double
0.00149253 -0.00108868 0
0.00630323 -0.00629956 0
0.0158106 -0.00138652 0
0.0184075 -0.00166551 0
-0.000101031 -0.000399357 0
6.70702e-05 -0.00040131 0
-2.79648e-05 -0.000899689 0
6.19941e-05 -0.000868373 0
-0.000191812 -0.00052558 0
-2.79648e-05 -0.000899689 0
7.3103e-05 -0.000568253 0
6.19941e-05 -0.000868373 0
-1.68931e-05 -0.000922431 0
-0.000191812 -0.00052558 0
8.64956e-07 -0.00102717 0
7.3103e-05 -0.000568253 0
5.19186e-05 -0.000575521 0
-1.68931e-05 -0.000922431 0
-1.42454e-05 -0.00065378 0
8.64956e-07 -0.00102717 0
3.57628e-05 -0.000843151 0
5.19186e-05 -0.000575521 0
-3.62969e-05 -0.00086902 0
-1.42454e-05 -0.00065378 0
9.07127e-05 -0.000556714 0
3.57628e-05 -0.000843151 0
-1.51726e-05 -0.000557948 0
-3.62969e-05 -0.00086902 0
6.95894e-05 -0.00100594 0
9.07127e-05 -0.000556714 0
-1.38843e-05 -0.000576218 0
-1.51726e-05 -0.000557948 0
-0.000301214 -0.000533748 0
6.95894e-05 -0.00100594 0
-0.000521531 -0.000819172 0
-1.38843e-05 -0.000576218 0
-0.000219824 -0.00118314 0
-0.000521531 -0.000819172 0
6.20592e-05 -0.00044082 0
-1.38843e-05 -0.000576218 0
-7.6984e-05 -0.00119303 0
-0.000219824 -0.00118314 0
-0.000448655 -0.000485682 0
6.20592e-05 -0.00044082 0
9.82807e-05 -0.000703311 0
-7.6984e-05 -0.00119303 0
-0.000212959 -0.000457646 0
-0.000448655 -0.000485682 0
1.77515e-05 -0.000398765 0
9.82807e-05 -0.000703311 0
-0.00022321 -0.000764836 0
-0.000212959 -0.000457646 0
-1.86432e-05 -0.000377655 0
-0.00022321 -0.000764836 0
2.18031e-05 -0.00027255 0
-0.000212959 -0.000457646 0
-3.29722e-05 -0.000713206 0
-1.86432e-05 -0.000377655 0
-1.81441e-05 -0.000738175 0
2.18031e-05 -0.00027255 0
9.70947e-06 -0.000386773 0
-3.29722e-05 -0.000713206 0
3.49793e-06 -0.00036001 0
-1.81441e-05 -0.000738175 0
-2.68725e-05 -0.000765951 0
9.70947e-06 -0.000386773 0
-4.78684e-06 -0.000777673 0
3.49793e-06 -0.00036001 0
2.10488e-06 -0.000386357 0
-2.68725e-05 -0.000765951 0
1.60111e-06 -0.000375842 0
-4.78684e-06 -0.000777673 0
-2.47195e-05 -0.000832316 0
2.10488e-06 -0.000386357 0
-2.96859e-06 -0.000836401 0
1.60111e-06 -0.000375842 0
5.81762e-06 -0.000377567 0
-2.47195e-05 -0.000832316 0
2.11211e-06 -0.000371921 0
-2.96859e-06 -0.000836401 0
-2.61227e-05 -0.000663188 0
-1.59432e-05 -0.00173159 0
-2.69759e-05 -0.000663458 0
-1.38396e-05 -0.00173371 0
-2.27736e-05 -0.000663573 0
-1.57435e-05 -0.00172942 0
-2.61227e-05 -0.000663188 0
-1.59432e-05 -0.00173159 0
-2.07001e-05 -0.000663045 0
-1.28173e-05 -0.0017269 0
-2.27736e-05 -0.000663573 0
-1.57435e-05 -0.00172942 0
-1.8605e-05 -0.000661999 0
-1.07445e-05 -0.00172413 0
-2.07001e-05 -0.000663045 0
-1.28173e-05 -0.0017269 0
-1.6314e-05 -0.000661195 0
-7.17433e-06 -0.0017216 0
-1.8605e-05 -0.000661999 0
-1.07445e-05 -0.00172413 0
-1.30147e-05 -0.0006596 0
-3.17506e-06 -0.00171889 0
-1.6314e-05 -0.000661195 0
-7.17433e-06 -0.0017216 0
-7.44928e-06 -0.000658713 0
2.20487e-06 -0.00171615 0
-1.30147e-05 -0.0006596 0
-3.17506e-06 -0.00171889 0
-9.38185e-07 -0.000656986 0
9.30941e-06 -0.00171405 0
-7.44928e-06 -0.000658713 0
2.20487e-06 -0.00171615 0
8.65464e-06 -0.000655611 0
1.65388e-05 -0.00171215 0
-9.38185e-07 -0.000656986 0
9.30941e-06 -0.00171405 0
1.93846e-05 -0.000654735 0
2.60457e-05 -0.00171121 0
8.65464e-06 -0.000655611 0
1.65388e-05 -0.00171215 0
3.31877e-05 -0.000653448 0
3.59551e-05 -0.00171051 0
1.93846e-05 -0.000654735 0
2.60457e-05 -0.00171121 0
4.88325e-05 -0.000652663 0
4.26542e-05 -0.00171175 0
3.31877e-05 -0.000653448 0
3.59551e-05 -0.00171051 0
4.88325e-05 -0.000652663 0
6.14126e-05 -0.000653287 0
4.26542e-05 -0.00171175 0
4.99166e-05 -0.00171403 0
7.34024e-05 -0.000653595 0
5.40831e-05 -0.00171883 0
6.14126e-05 -0.000653287 0
4.99166e-05 -0.00171403 0
8.03021e-05 -0.000656286 0
5.6376e-05 -0.00172298 0
7.34024e-05 -0.000653595 0
5.40831e-05 -0.00171883 0
7.90628e-05 -0.000658992 0
6.20866e-05 -0.00172529 0
8.03021e-05 -0.000656286 0
5.6376e-05 -0.00172298 0
7.85275e-05 -0.00066023 0
6.53869e-05 -0.00172538 0
7.90628e-05 -0.000658992 0
6.20866e-05 -0.00172529 0
6.97791e-05 -0.000662384 0
6.48816e-05 -0.00172449 0
7.85275e-05 -0.00066023 0
6.53869e-05 -0.00172538 0
5.40759e-05 -0.000663089 0
6.02515e-05 -0.00172271 0
6.97791e-05 -0.000662384 0
6.48816e-05 -0.00172449 0
3.95161e-05 -0.000662239 0
5.10428e-05 -0.00171934 0
5.40759e-05 -0.000663089 0
6.02515e-05 -0.00172271 0
2.80279e-05 -0.000660509 0
3.61215e-05 -0.00171756 0
3.95161e-05 -0.000662239 0
5.10428e-05 -0.00171934 0
1.83778e-05 -0.000660676 0
2.10707e-05 -0.00171446 0
2.80279e-05 -0.000660509 0
3.61215e-05 -0.00171756 0
5.62679e-06 -0.000660564 0
9.18274e-06 -0.00171567 0
1.83778e-05 -0.000660676 0
2.10707e-05 -0.00171446 0
-3.11999e-06 -0.000660775 0
-4.62907e-06 -0.00171488 0
5.62679e-06 -0.000660564 0
9.18274e-06 -0.00171567 0
-7.76038e-06 -0.000662235 0
-1.56834e-05 -0.00171171 0
-3.11999e-06 -0.000660775 0
-4.62907e-06 -0.00171488 0
-1.91181e-05 -0.000665851 0
-2.56381e-05 -0.00170708 0
-7.76038e-06 -0.000662235 0
-1.56834e-05 -0.00171171 0
-3.19847e-05 -0.000670129 0
-2.79184e-05 -0.00170109 0
-1.91181e-05 -0.000665851 0
-2.56381e-05 -0.00170708 0
-4.10491e-05 -0.000669427 0
-2.76681e-05 -0.00169965 0
-3.19847e-05 -0.000670129 0
-2.79184e-05 -0.00170109 0
-4.12926e-05 -0.000667085 0
-2.48003e-05 -0.00170005 0
-4.10491e-05 -0.000669427 0
-2.76681e-05 -0.00169965 0
-4.08321e-05 -0.000663387 0
-2.23314e-05 -0.00170328 0
-4.12926e-05 -0.000667085 0
-2.48003e-05 -0.00170005 0
-3.11703e-05 -0.000658754 0
-1.28639e-05 -0.00170729 0
-4.08321e-05 -0.000663387 0
-2.23314e-05 -0.00170328 0
-2.33322e-05 -0.000654087 0
-1.07167e-05 -0.00171229 0
-3.11703e-05 -0.000658754 0
-1.28639e-05 -0.00170729 0
-4.13199e-06 -0.000652541 0
6.97369e-07 -0.00171294 0
-2.33322e-05 -0.000654087 0
-1.07167e-05 -0.00171229 0
2.03128e-06 -0.000652219 0
4.44934e-06 -0.00171604 0
-4.13199e-06 -0.000652541 0
6.97369e-07 -0.00171294 0
2.71487e-05 -0.000651993 0
2.29994e-05 -0.00171533 0
2.03128e-06 -0.000652219 0
4.44934e-06 -0.00171604 0
2.94713e-05 -0.000653153 0
1.221e-05 -0.00171718 0
2.71487e-05 -0.000651993 0
2.29994e-05 -0.00171533 0
4.58974e-05 -0.000656072 0
2.30332e-05 -0.00171367 0
2.94713e-05 -0.000653153 0
1.221e-05 -0.00171718 0
1.14643e-05 -0.000660134 0
-1.04213e-05 -0.00171222 0
4.58974e-05 -0.000656072 0
2.30332e-05 -0.00171367 0
1.86253e-05 -0.000664996 0
-5.60892e-06 -0.00170277 0
1.14643e-05 -0.000660134 0
-1.04213e-05 -0.00171222 0
1.86253e-05 -0.000664996 0
-6.46083e-05 -0.000670451 0
-5.60892e-06 -0.00170277 0
-7.43807e-05 -0.0016999 0
-7.614e-05 -0.000669473 0
-6.61859e-05 -0.00169139 0
-6.46083e-05 -0.000670451 0
-7.43807e-05 -0.0016999 0
-0.000241955 -0.000666402 0
-0.000203559 -0.00169343 0
-7.614e-05 -0.000669473 0
-6.61859e-05 -0.00169139 0
-0.000293069 -0.000658376 0
-0.000245207 -0.00165086 0
-0.000241955 -0.000666402 0
-0.000203559 -0.00169343 0
-0.000671446 -0.000650062 0
-0.000605975 -0.00162697 0
-0.000293069 -0.000658376 0
-0.000245207 -0.00165086 0
-0.000932404 -0.00063641 0
-0.000867416 -0.00150178 0
-0.000671446 -0.000650062 0
-0.000605975 -0.00162697 0
-0.000932404 -0.00063641 0
-0.00190812 -0.000618624 0
-0.000867416 -0.00150178 0
-0.00182247 -0.00138316 0
-0.00190812 -0.000618624 0
-0.0028539 -0.00060079 0
-0.00182247 -0.00138316 0
-0.00277923 -0.000998992 0
-0.0053184 -0.00057954 0
-0.00517544 -0.000574425 0
-0.0028539 -0.00060079 0
-0.00277923 -0.000998992 0
-0.00801235 -0.000550274 0
-0.00781365 0.000462058 0
-0.0053184 -0.00057954 0
-0.00517544 -0.000574425 0
-0.0137034 -0.000486078 0
-0.0132948 0.00165783 0
-0.00801235 -0.000550274 0
-0.00781365 0.000462058 0
-0.0200959 -0.000418116 0
-0.0195321 0.00413334 0
-0.0137034 -0.000486078 0
-0.0132948 0.00165783 0
-0.0321628 -0.00027634 0
-0.0312798 0.00703135 0
-0.0200959 -0.000418116 0
-0.0195321 0.00413334 0
-0.0462314 -0.0002051 0
-0.0448696 0.0128059 0
-0.0321628 -0.00027634 0
-0.0312798 0.00703135 0
-0.0715525 0.000170874 0
-0.0694828 0.0191627 0
-0.0462314 -0.0002051 0
-0.0448696 0.0128059 0
-0.102119 0.00045475 0
-0.0998557 0.0326559 0
-0.0715525 0.000170874 0
-0.0694828 0.0191627 0
-0.152382 0.000538958 0
-0.149955 0.0342518 0
-0.102119 0.00045475 0
-0.0998557 0.0326559 0
-0.172535 -0.000161924 0
-0.195539 -0.00230089 0
-0.152382 0.000538958 0
-0.149955 0.0342518 0
0.00566597 -0.00278926 0
0.0165438 -0.0394801 0
-0.0294357 -0.00207042 0
-0.0199985 -0.0612059 0
-6.84704e-06 -0.000386976 0
-3.6962e-05 -0.000830514 0
5.81762e-06 -0.000377567 0
-2.47195e-05 -0.000832316 0
-6.84704e-06 -0.000386976 0
-2.5383e-05 -0.000395108 0
-3.6962e-05 -0.000830514 0
-4.12527e-05 -0.000827855 0
-3.90891e-05 -0.000398024 0
-4.97472e-05 -0.000826943 0
-2.5383e-05 -0.000395108 0
-4.12527e-05 -0.000827855 0
-3.90891e-05 -0.000398024 0
-4.30818e-05 -0.000402282 0
-4.97472e-05 -0.000826943 0
-5.67248e-05 -0.0008245 0
-4.30818e-05 -0.000402282 0
-4.59691e-05 -0.000404388 0
-5.67248e-05 -0.0008245 0
-5.86712e-05 -0.000825533 0
-4.59691e-05 -0.000404388 0
-4.5993e-05 -0.00040693 0
-5.86712e-05 -0.000825533 0
-5.67129e-05 -0.000827361 0
-4.5993e-05 -0.00040693 0
-4.2175e-05 -0.000406885 0
-5.67129e-05 -0.000827361 0
-5.46618e-05 -0.00083177 0
-4.2175e-05 -0.000406885 0
-3.63157e-05 -0.000409554 0
-5.46618e-05 -0.00083177 0
-5.18388e-05 -0.000835433 0
-3.63157e-05 -0.000409554 0
-3.18999e-05 -0.000411477 0
-5.18388e-05 -0.000835433 0
-4.42906e-05 -0.00083918 0
-3.18999e-05 -0.000411477 0
-2.69952e-05 -0.000413641 0
-4.42906e-05 -0.00083918 0
-3.63059e-05 -0.000842571 0
-2.69952e-05 -0.000413641 0
-2.1554e-05 -0.000414611 0
-3.63059e-05 -0.000842571 0
-2.79133e-05 -0.00084534 0
-2.1554e-05 -0.000414611 0
-1.65469e-05 -0.00041586 0
-2.79133e-05 -0.00084534 0
-2.08299e-05 -0.000847469 0
-1.65469e-05 -0.00041586 0
-1.19362e-05 -0.000416118 0
-2.08299e-05 -0.000847469 0
-1.38754e-05 -0.000849094 0
-1.19362e-05 -0.000416118 0
-8.40989e-06 -0.000416508 0
-1.38754e-05 -0.000849094 0
-9.38756e-06 -0.000850483 0
-8.40989e-06 -0.000416508 0
-4.73348e-06 -0.000416571 0
-9.38756e-06 -0.000850483 0
-5.81978e-06 -0.000852021 0
-4.73348e-06 -0.000416571 0
-4.68057e-07 -0.000416808 0
-5.81978e-06 -0.000852021 0
-4.93734e-06 -0.000854138 0
-4.68057e-07 -0.000416808 0
1.8034e-06 -0.00041748 0
-4.93734e-06 -0.000854138 0
-4.33955e-06 -0.000855721 0
1.8034e-06 -0.00041748 0
2.27507e-06 -0.000418376 0
-4.33955e-06 -0.000855721 0
-3.24447e-06 -0.00085784 0
2.27507e-06 -0.000418376 0
2.3996e-06 -0.00041929 0
-3.24447e-06 -0.00085784 0
-2.23722e-06 -0.00085989 0
2.3996e-06 -0.00041929 0
7.16428e-07 -0.000420032 0
-2.23722e-06 -0.00085989 0
-2.32632e-06 -0.00086175 0
7.16428e-07 -0.000420032 0
-1.96465e-07 -0.00042031 0
-2.32632e-06 -0.00086175 0
-2.62887e-06 -0.000863617 0
-1.96465e-07 -0.00042031 0
-1.13696e-06 -0.000420769 0
-2.62887e-06 -0.000863617 0
-3.38459e-06 -0.000864797 0
-1.13696e-06 -0.000420769 0
-1.39453e-06 -0.000420796 0
-3.38459e-06 -0.000864797 0
-3.5594e-06 -0.00086565 0
-1.39453e-06 -0.000420796 0
-1.87416e-06 -0.000420774 0
-3.5594e-06 -0.00086565 0
-4.59464e-06 -0.000866148 0
0.144677 -0.139326 0
0.166739 -0.0813674 0
0.217894 -0.210024 0
0.256414 -0.128294 0
0.144677 -0.139326 0
0.0946322 -0.0928976 0
0.166739 -0.0813674 0
0.112463 -0.0599616 0
0.0946322 -0.0928976 0
0.0661709 -0.065654 0
0.112463 -0.0599616 0
0.0756624 -0.0472061 0
0.0467416 -0.0465623 0
0.0526959 -0.0360557 0
0.0661709 -0.065654 0
0.0756624 -0.0472061 0
0.0338305 -0.034037 0
0.036992 -0.0275824 0
0.0467416 -0.0465623 0
0.0526959 -0.0360557 0
0.0338305 -0.034037 0
0.0240093 -0.0242741 0
0.036992 -0.0275824 0
0.0258349 -0.0204867 0
0.0240093 -0.0242741 0
0.0170702 -0.0174772 0
0.0258349 -0.0204867 0
0.0178598 -0.0151127 0
0.0117494 -0.0121797 0
0.012049 -0.0107825 0
0.0170702 -0.0174772 0
0.0178598 -0.0151127 0
0.0117494 -0.0121797 0
0.0080358 -0.00852749 0
0.012049 -0.0107825 0
0.00796876 -0.00767672 0
0.0080358 -0.00852749 0
0.00530033 -0.00579504 0
0.00796876 -0.00767672 0
0.00506487 -0.00534179 0
0.00530033 -0.00579504 0
0.0034798 -0.00399078 0
0.00506487 -0.00534179 0
0.00310979 -0.00375716 0
0.0034798 -0.00399078 0
0.00220281 -0.00270837 0
0.00310979 -0.00375716 0
0.00177779 -0.00263139 0
0.00139669 -0.00190164 0
0.000925072 -0.00190216 0
0.00220281 -0.00270837 0
0.00177779 -0.00263139 0
0.000854032 -0.00135713 0
0.000372957 -0.00140515 0
0.00139669 -0.00190164 0
0.000925072 -0.00190216 0
0.000854032 -0.00135713 0
0.000524754 -0.00102578 0
0.000372957 -0.00140515 0
3.79094e-05 -0.00109913 0
0.000524754 -0.00102578 0
0.000316892 -0.000814696 0
3.79094e-05 -0.00109913 0
-0.000163001 -0.00089893 0
0.000316892 -0.000814696 0
0.000195707 -0.000688966 0
-0.000163001 -0.00089893 0
-0.000279046 -0.000782338 0
0.000195707 -0.000688966 0
0.000132671 -0.000619912 0
-0.000279046 -0.000782338 0
-0.000336875 -0.000713512 0
0.000132671 -0.000619912 0
9.74597e-05 -0.000579534 0
-0.000336875 -0.000713512 0
-0.000365872 -0.000677073 0
9.74597e-05 -0.000579534 0
0.000100754 -0.000575689 0
-0.000365872 -0.000677073 0
-0.000359854 -0.000665544 0
0.000100754 -0.000575689 0
9.97748e-05 -0.000572286 0
-0.000359854 -0.000665544 0
-0.000354943 -0.000669206 0
0.000132889 -0.000591525 0
-0.000317895 -0.00069857 0
9.97748e-05 -0.000572286 0
-0.000354943 -0.000669206 0
0.000149681 -0.000598467 0
-0.000320927 -0.000713334 0
0.000132889 -0.000591525 0
-0.000317895 -0.00069857 0
0.000149681 -0.000598467 0
0.000195006 -0.000644342 0
-0.000320927 -0.000713334 0
-0.000277282 -0.000738504 0
0.000197497 -0.000659844 0
-0.000272986 -0.000734173 0
0.000195006 -0.000644342 0
-0.000277282 -0.000738504 0
0.00023282 -0.000723309 0
-0.000180227 -0.000762604 0
0.000197497 -0.000659844 0
-0.000272986 -0.000734173 0
0.00023282 -0.000723309 0
0.000203868 -0.000694395 0
-0.000180227 -0.000762604 0
-0.000177285 -0.000782698 0
0.000277217 -0.000752334 0
-0.000115825 -0.000847424 0
0.000203868 -0.000694395 0
-0.000177285 -0.000782698 0
0.000277217 -0.000752334 0
0.000274418 -0.000749308 0
-0.000115825 -0.000847424 0
-0.000167451 -0.000834269 0
0.000274418 -0.000749308 0
0.000363275 -0.000857214 0
-0.000167451 -0.000834269 0
-3.54525e-05 -0.000928877 0
0.000363275 -0.000857214 0
0.00029091 -0.000787053 0
-3.54525e-05 -0.000928877 0
-6.68281e-05 -0.000825737 0
0.00029091 -0.000787053 0
0.000211868 -0.000680879 0
-6.68281e-05 -0.000825737 0
0.00020825 -0.00106011 0
0.000211868 -0.000680879 0
0.000170759 -0.000481994 0
0.00020825 -0.00106011 0
3.06896e-05 -0.000527286 0
0.000170759 -0.000481994 0
0.000102871 -0.000441726 0
3.06896e-05 -0.000527286 0
-3.06463e-05 -0.000885004 0
0.000102871 -0.000441726 0
0.000271793 -0.000283493 0
-3.06463e-05 -0.000885004 0
0.000159146 -0.000737085 0
0.000271793 -0.000283493 0
0.000218788 -0.000368163 0
0.000159146 -0.000737085 0
-0.000194851 -0.000836213 0
0.000218788 -0.000368163 0
0.000138889 -0.0004443 0
-0.000194851 -0.000836213 0
8.56043e-05 -0.000777714 0
0.000138889 -0.0004443 0
-0.000101031 -0.000399357 0
8.56043e-05 -0.000777714 0
-2.79648e-05 -0.000899689 0
-3.5594e-06 -0.00086565 0
-4.59464e-06 -0.000866148 0
-5.08108e-06 -0.000481279 0
-6.53558e-06 -0.000483955 0
-5.08108e-06 -0.000481279 0
-6.53558e-06 -0.000483955 0
-8.07749e-06 -0.000821105 0
-9.94775e-06 -0.000822745 0
-8.07749e-06 -0.000821105 0
-9.94775e-06 -0.000822745 0
-1.17956e-05 -0.000532581 0
-1.28303e-05 -0.000534979 0
-1.17956e-05 -0.000532581 0
-1.28303e-05 -0.000534979 0
-1.46975e-05 -0.0007865 0
-1.76278e-05 -0.000789346 0
-1.46975e-05 -0.0007865 0
-1.76278e-05 -0.000789346 0
-1.94074e-05 -0.000566819 0
-2.12893e-05 -0.000569378 0
-1.94074e-05 -0.000566819 0
-2.12893e-05 -0.000569378 0
-2.2545e-05 -0.000742873 0
-2.55e-05 -0.000746007 0
-2.78244e-05 -0.000560273 0
-2.2545e-05 -0.000742873 0
-2.97539e-05 -0.000563494 0
-2.55e-05 -0.000746007 0
-2.78244e-05 -0.000560273 0
-2.97539e-05 -0.000563494 0
-3.24403e-05 -0.000658588 0
-3.41862e-05 -0.000662363 0
-3.24403e-05 -0.000658588 0
-3.41862e-05 -0.000662363 0
-3.90769e-05 -0.000494875 0
-3.99261e-05 -0.000499887 0
-3.90769e-05 -0.000494875 0
-3.99261e-05 -0.000499887 0
-4.71607e-05 -0.000531535 0
-4.78025e-05 -0.000538006 0
-4.71607e-05 -0.000531535 0
-4.78025e-05 -0.000538006 0
-5.82445e-05 -0.000394918 0
-5.89596e-05 -0.000404167 0
-5.82445e-05 -0.000394918 0
-5.89596e-05 -0.000404167 0
-7.33452e-05 -0.000398536 0
-7.67932e-05 -0.000411044 0
-7.33452e-05 -0.000398536 0
-7.67932e-05 -0.000411044 0
-9.27387e-05 -0.00030437 0
-0.000100778 -0.000320398 0
-9.27387e-05 -0.00030437 0
-0.000100778 -0.000320398 0
-0.00011677 -0.000292685 0
-0.000133679 -0.000312332 0
-0.00011677 -0.000292685 0
-0.000133679 -0.000312332 0
-0.000143319 -0.000244305 0
-0.000172917 -0.000265462 0
-0.000143319 -0.000244305 0
-0.000172917 -0.000265462 0
-0.000169162 -0.00021743 0
-0.000214429 -0.000237477 0
-0.000169162 -0.00021743 0
-0.000214429 -0.000237477 0
-0.000188396 -0.000214161 0
-0.000249499 -0.000227927 0
-0.000188396 -0.000214161 0
-0.000249499 -0.000227927 0
-0.000194659 -0.000175756 0
-0.000265546 -0.000178703 0
-0.000194659 -0.000175756 0
-0.000265546 -0.000178703 0
-0.000184825 -0.000242711 0
-0.000253958 -0.000232086 0
-0.000184825 -0.000242711 0
-0.000253958 -0.000232086 0
-0.000159708 -0.000221461 0
-0.00021593 -0.000201604 0
-0.000159708 -0.000221461 0
-0.00021593 -0.000201604 0
-0.000127161 -0.000405274 0
-0.000166514 -0.000380835 0
-0.000127161 -0.000405274 0
-0.000166514 -0.000380835 0
-9.16877e-05 -0.00041248 0
-0.000115554 -0.000389837 0
-9.16877e-05 -0.00041248 0
-0.000115554 -0.000389837 0
-6.36231e-05 -0.000722024 0
-7.55932e-05 -0.00070269 0
-6.36231e-05 -0.000722024 0
-7.55932e-05 -0.00070269 0
-3.7158e-05 -0.000698599 0
-4.18866e-05 -0.00068638 0
-3.7158e-05 -0.000698599 0
-4.18866e-05 -0.00068638 0
-2.75757e-05 -0.00108831 0
-3.01668e-05 -0.00107886 0
-2.75757e-05 -0.00108831 0
-3.01668e-05 -0.00107886 0
-1.30303e-05 -0.000922066 0
-1.26838e-05 -0.000916123 0
-1.30303e-05 -0.000922066 0
-1.26838e-05 -0.000916123 0
-1.14486e-05 -0.00136806 0
-1.21014e-05 -0.0013642 0
-1.14486e-05 -0.00136806 0
-1.21014e-05 -0.0013642 0
-1.56216e-06 -0.00096755 0
2.08116e-07 -0.00096696 0
-1.56216e-06 -0.00096755 0
2.08116e-07 -0.00096696 0
-9.94441e-06 -0.00154412 0
-8.84963e-06 -0.00154661 0
-9.94441e-06 -0.00154412 0
-8.84963e-06 -0.00154661 0
-1.06067e-05 -0.000867926 0
-9.75207e-06 -0.000869439 0
-1.06067e-05 -0.000867926 0
-9.75207e-06 -0.000869439 0
-1.59432e-05 -0.00173159 0
-1.38396e-05 -0.00173371 0
0.166739 -0.0813674 0
0.112463 -0.0599616 0
0.156982 -0.00221357 0
0.109082 -0.0152207 0
0.112463 -0.0599616 0
0.0756624 -0.0472061 0
0.109082 -0.0152207 0
0.0750293 -0.0212305 0
0.0526959 -0.0360557 0
0.053223 -0.0204434 0
0.0756624 -0.0472061 0
0.0750293 -0.0212305 0
0.036992 -0.0275824 0
0.0375296 -0.0178635 0
0.0526959 -0.0360557 0
0.053223 -0.0204434 0
0.036992 -0.0275824 0
0.0258349 -0.0204867 0
0.0375296 -0.0178635 0
0.0263662 -0.0143133 0
0.0258349 -0.0204867 0
0.0178598 -0.0151127 0
0.0263662 -0.0143133 0
0.018214 -0.0110836 0
0.012049 -0.0107825 0
0.0123418 -0.00813004 0
0.0178598 -0.0151127 0
0.018214 -0.0110836 0
0.012049 -0.0107825 0
0.00796876 -0.00767672 0
0.0123418 -0.00813004 0
0.00814498 -0.00588032 0
0.00796876 -0.00767672 0
0.00506487 -0.00534179 0
0.00814498 -0.00588032 0
0.00522167 -0.00407374 0
0.00506487 -0.00534179 0
0.00310979 -0.00375716 0
0.00522167 -0.00407374 0
0.00324165 -0.00283172 0
0.00310979 -0.00375716 0
0.00177779 -0.00263139 0
0.00324165 -0.00283172 0
0.00191559 -0.00191007 0
0.000925072 -0.00190216 0
0.00106155 -0.00132236 0
0.00177779 -0.00263139 0
0.00191559 -0.00191007 0
0.000372957 -0.00140515 0
0.000509055 -0.000916671 0
0.000925072 -0.00190216 0
0.00106155 -0.00132236 0
0.000372957 -0.00140515 0
3.79094e-05 -0.00109913 0
0.000509055 -0.000916671 0
0.000163939 -0.000666926 0
3.79094e-05 -0.00109913 0
-0.000163001 -0.00089893 0
0.000163939 -0.000666926 0
-4.47237e-05 -0.000503324 0
-0.000163001 -0.00089893 0
-0.000279046 -0.000782338 0
-4.47237e-05 -0.000503324 0
-0.000166182 -0.000405148 0
-0.000279046 -0.000782338 0
-0.000336875 -0.000713512 0
-0.000166182 -0.000405148 0
-0.000224182 -0.000347417 0