# vtk DataFile Version 3.0
#This file was generated by the deal.II library on 2016/12/20 at 10:56:41
ASCII
DATASET UNSTRUCTURED_GRID

POINTS 7228 double
-1 0.5 0
-0.978723 0.478723 0
-0.970149 0.5 0
-0.964976 0.485465 0
-0.970149 0.5 0
-0.964976 0.485465 0
-0.940299 0.5 0
-0.945882 0.477585 0
0.12 -0.5 0
0.15 -0.5 0
0.119014 -0.4708 0
0.15 -0.471429 0
0.11755 -0.441479 0
0.119014 -0.4708 0
0.15 -0.442857 0
0.15 -0.471429 0
0.117242 -0.412206 0
0.11755 -0.441479 0
0.15 -0.414286 0
0.15 -0.442857 0
0.118129 -0.383064 0
0.117242 -0.412206 0
0.15 -0.385714 0
0.15 -0.414286 0
0.12021 -0.354337 0
0.118129 -0.383064 0
0.15 -0.357143 0
0.15 -0.385714 0
0.121793 -0.32584 0
0.12021 -0.354337 0
0.15 -0.328571 0
0.15 -0.357143 0
0.122717 -0.296869 0
0.121793 -0.32584 0
0.15 -0.3 0
0.15 -0.328571 0
0.123759 -0.266752 0
0.122717 -0.296869 0
0.153091 -0.267708 0
0.15 -0.3 0
0.18456 -0.26795 0
0.153091 -0.267708 0
0.183333 -0.3 0
0.15 -0.3 0
0.216606 -0.268111 0
0.18456 -0.26795 0
0.216667 -0.3 0
0.183333 -0.3 0
0.24835 -0.26841 0
0.216606 -0.268111 0
0.25 -0.3 0
0.216667 -0.3 0
0.278782 -0.268564 0
0.24835 -0.26841 0
0.279437 -0.298917 0
0.25 -0.3 0
0.279638 -0.328111 0
0.279437 -0.298917 0
0.25 -0.328571 0
0.25 -0.3 0
0.27971 -0.356801 0
0.279638 -0.328111 0
0.25 -0.357143 0
0.25 -0.328571 0
0.279677 -0.385395 0
0.27971 -0.356801 0
0.25 -0.385714 0
0.25 -0.357143 0
0.279641 -0.413938 0
0.279677 -0.385395 0
0.25 -0.414286 0
0.25 -0.385714 0
0.279666 -0.442534 0
0.279641 -0.413938 0
0.25 -0.442857 0
0.25 -0.414286 0
0.279811 -0.471266 0
0.279666 -0.442534 0
0.25 -0.471429 0
0.25 -0.442857 0
0.28 -0.5 0
0.279811 -0.471266 0
0.25 -0.5 0
0.25 -0.471429 0
0.970149 0.5 0
0.970096 0.46978 0
1 0.5 0
1 0.469697 0
0.940299 0.5 0
0.940231 0.46984 0
0.970149 0.5 0
0.970096 0.46978 0
0.910448 0.5 0
0.910371 0.469856 0
0.940299 0.5 0
0.940231 0.46984 0
0.880597 0.5 0
0.880527 0.469909 0
0.910448 0.5 0
0.910371 0.469856 0
0.850746 0.5 0
0.850684 0.469926 0
0.880597 0.5 0
0.880527 0.469909 0
0.820896 0.5 0
0.820842 0.469978 0
0.850746 0.5 0
0.850684 0.469926 0
0.791045 0.5 0
0.791001 0.470016 0
0.820896 0.5 0
0.820842 0.469978 0
0.761194 0.5 0
0.761159 0.470055 0
0.791045 0.5 0
0.791001 0.470016 0
0.731343 0.5 0
0.731316 0.470091 0
0.761194 0.5 0
0.761159 0.470055 0
0.701493 0.5 0
0.701472 0.470118 0
0.731343 0.5 0
0.731316 0.470091 0
0.671642 0.5 0
0.671627 0.470134 0
0.701493 0.5 0
0.701472 0.470118 0
0.641791 0.5 0
0.64178 0.470142 0
0.671642 0.5 0
0.671627 0.470134 0
0.641791 0.5 0
0.61194 0.5 0
0.64178 0.470142 0
0.611934 0.470065 0
0.58209 0.5 0
0.582089 0.470002 0
0.61194 0.5 0
0.611934 0.470065 0
0.552239 0.5 0
0.552248 0.469853 0
0.58209 0.5 0
0.582089 0.470002 0
0.522388 0.5 0
0.522413 0.469718 0
0.552239 0.5 0
0.552248 0.469853 0
0.492537 0.5 0
0.492577 0.469656 0
0.522388 0.5 0
0.522413 0.469718 0
0.462687 0.5 0
0.462743 0.469571 0
0.492537 0.5 0
0.492577 0.469656 0
0.432836 0.5 0
0.432895 0.46963 0
0.462687 0.5 0
0.462743 0.469571 0
0.402985 0.5 0
0.403046 0.469669 0
0.432836 0.5 0
0.432895 0.46963 0
0.373134 0.5 0
0.373191 0.469745 0
0.402985 0.5 0
0.403046 0.469669 0
0.343284 0.5 0
0.343335 0.469723 0
0.373134 0.5 0
0.373191 0.469745 0
0.313433 0.5 0
0.313478 0.469741 0
0.343284 0.5 0
0.343335 0.469723 0
0.283582 0.5 0
0.283622 0.469783 0
0.313433 0.5 0
0.313478 0.469741 0
0.253731 0.5 0
0.253768 0.469742 0
0.283582 0.5 0
0.283622 0.469783 0
0.223881 0.5 0
0.223918 0.469737 0
0.253731 0.5 0
0.253768 0.469742 0
0.19403 0.5 0
0.194064 0.46981 0
0.223881 0.5 0
0.223918 0.469737 0
0.164179 0.5 0
0.16421 0.469881 0
0.19403 0.5 0
0.194064 0.46981 0
0.134328 0.5 0
0.134355 0.46994 0
0.164179 0.5 0
0.16421 0.469881 0
0.104478 0.5 0
0.1045 0.469997 0
0.134328 0.5 0
0.134355 0.46994 0
0.074627 0.5 0
0.074645 0.470051 0
0.104478 0.5 0
0.1045 0.469997 0
0.044776 0.5 0
0.04479 0.470093 0
0.074627 0.5 0
0.074645 0.470051 0
0.014925 0.5 0
0.014935 0.47012 0
0.044776 0.5 0
0.04479 0.470093 0
-0.014925 0.5 0
-0.014918 0.470135 0
0.014925 0.5 0
0.014935 0.47012 0
-0.044776 0.5 0
-0.044771 0.470143 0
-0.014925 0.5 0
-0.014918 0.470135 0
-0.074627 0.5 0
-0.074623 0.470146 0
-0.044776 0.5 0
-0.044771 0.470143 0
-0.104478 0.5 0
-0.104496 0.469979 0
-0.074627 0.5 0
-0.074623 0.470146 0
-0.134328 0.5 0
-0.134359 0.469935 0
-0.104478 0.5 0
-0.104496 0.469979 0
-0.164179 0.5 0
-0.164225 0.469839 0
-0.134328 0.5 0
-0.134359 0.469935 0
-0.164179 0.5 0
-0.19403 0.5 0
-0.164225 0.469839 0
-0.194083 0.469797 0
-0.223881 0.5 0
-0.22394 0.469753 0
-0.19403 0.5 0
-0.194083 0.469797 0
-0.253731 0.5 0
-0.253798 0.469819 0
-0.223881 0.5 0
-0.22394 0.469753 0
-0.283582 0.5 0
-0.283647 0.470019 0
-0.253731 0.5 0
-0.253798 0.469819 0
-0.313433 0.5 0
-0.313491 0.470151 0
-0.283582 0.5 0
-0.283647 0.470019 0
-0.343284 0.5 0
-0.343348 0.470381 0
-0.313433 0.5 0
-0.313491 0.470151 0
-0.343284 0.5 0
-0.373134 0.5 0
-0.343348 0.470381 0
-0.373195 0.470395 0
-0.373134 0.5 0
-0.402985 0.5 0
-0.373195 0.470395 0
-0.403049 0.470404 0
-0.432836 0.5 0
-0.432937 0.470297 0
-0.402985 0.5 0
-0.403049 0.470404 0
-0.462687 0.5 0
-0.462848 0.469995 0
-0.432836 0.5 0
-0.432937 0.470297 0
-0.492537 0.5 0
-0.492807 0.469765 0
-0.462687 0.5 0
-0.462848 0.469995 0
-0.522388 0.5 0
-0.52276 0.46958 0
-0.492537 0.5 0
-0.492807 0.469765 0
-0.552239 0.5 0
-0.55273 0.469652 0
-0.522388 0.5 0
-0.52276 0.46958 0
-0.58209 0.5 0
-0.582662 0.469731 0
-0.552239 0.5 0
-0.55273 0.469652 0
-0.61194 0.5 0
-0.612594 0.469999 0
-0.58209 0.5 0
-0.582662 0.469731 0
-0.641791 0.5 0
-0.642647 0.470419 0
-0.61194 0.5 0
-0.612594 0.469999 0
-0.671642 0.5 0
-0.672638 0.470543 0
-0.641791 0.5 0
-0.642647 0.470419 0
-0.701493 0.5 0
-0.702968 0.4698 0
-0.671642 0.5 0
-0.672638 0.470543 0
-0.820896 0.5 0
-0.822797 0.47207 0
-0.791045 0.5 0
-0.795702 0.469563 0
0.31 -0.5 0
0.309694 -0.471123 0
0.28 -0.5 0
0.279811 -0.471266 0
0.31 -0.5 0
0.34 -0.5 0
0.309694 -0.471123 0
0.339686 -0.471033 0
0.37 -0.5 0
0.369721 -0.471055 0
0.34 -0.5 0
0.339686 -0.471033 0
0.37 -0.5 0
0.4 -0.5 0
0.369721 -0.471055 0
0.399756 -0.470957 0
0.4 -0.5 0
0.43 -0.5 0
0.399756 -0.470957 0
0.429805 -0.470822 0
0.43 -0.5 0
0.46 -0.5 0
0.429805 -0.470822 0
0.459835 -0.470712 0
0.46 -0.5 0
0.49 -0.5 0
0.459835 -0.470712 0
0.489873 -0.470554 0
0.49 -0.5 0
0.52 -0.5 0
0.489873 -0.470554 0
0.519906 -0.470379 0
0.52 -0.5 0
0.55 -0.5 0
0.519906 -0.470379 0
0.54993 -0.470248 0
0.55 -0.5 0
0.58 -0.5 0
0.54993 -0.470248 0
0.579948 -0.470155 0
0.58 -0.5 0
0.61 -0.5 0
0.579948 -0.470155 0
0.609962 -0.470091 0
0.61 -0.5 0
0.64 -0.5 0
0.609962 -0.470091 0
0.639972 -0.47005 0
0.64 -0.5 0
0.67 -0.5 0
0.639972 -0.47005 0
0.66998 -0.470026 0
0.67 -0.5 0
0.7 -0.5 0
0.66998 -0.470026 0
0.699986 -0.470013 0
0.7 -0.5 0
0.73 -0.5 0
0.699986 -0.470013 0
0.72999 -0.470006 0
0.73 -0.5 0
0.76 -0.5 0
0.72999 -0.470006 0
0.759994 -0.470003 0
0.76 -0.5 0
0.79 -0.5 0
0.759994 -0.470003 0
0.78998 -0.469916 0
0.79 -0.5 0
0.82 -0.5 0
0.78998 -0.469916 0
0.819956 -0.469877 0
0.82 -0.5 0
0.85 -0.5 0
0.819956 -0.469877 0
0.849929 -0.469833 0
0.85 -0.5 0
0.88 -0.5 0
0.849929 -0.469833 0
0.879924 -0.469805 0
0.88 -0.5 0
0.91 -0.5 0
0.879924 -0.469805 0
0.909913 -0.469792 0
0.91 -0.5 0
0.94 -0.5 0
0.909913 -0.469792 0
0.939922 -0.469775 0
0.94 -0.5 0
0.97 -0.5 0
0.939922 -0.469775 0
0.969956 -0.46974 0
0.97 -0.5 0
1 -0.5 0
0.969956 -0.46974 0
1 -0.469697 0
-0.702128 0.202128 0
-0.680976 0.2243 0
-0.723404 0.223404 0
-0.702394 0.245107 0
-0.702128 0.202128 0
-0.680851 0.180851 0
-0.680976 0.2243 0
-0.659597 0.203254 0
-0.680851 0.180851 0
-0.659574 0.159574 0
-0.659597 0.203254 0
-0.638233 0.18203 0
-0.638298 0.138298 0
-0.616915 0.16063 0
-0.659574 0.159574 0
-0.638233 0.18203 0
-0.617021 0.117021 0
-0.595665 0.139192 0
-0.638298 0.138298 0
-0.616915 0.16063 0
-0.617021 0.117021 0
-0.595745 0.095745 0
-0.595665 0.139192 0
-0.574431 0.117764 0
-0.595745 0.095745 0
-0.574468 0.074468 0
-0.574431 0.117764 0
-0.553204 0.096309 0
-0.553191 0.053191 0
-0.53184 0.075023 0
-0.574468 0.074468 0
-0.553204 0.096309 0
-0.553191 0.053191 0
-0.531915 0.031915 0
-0.53184 0.075023 0
-0.510492 0.053733 0
-0.531915 0.031915 0
-0.510638 0.010638 0
-0.510492 0.053733 0
-0.489127 0.032461 0
-0.510638 0.010638 0
-0.489362 -0.010638 0
-0.489127 0.032461 0
-0.467791 0.011178 0
-0.489362 -0.010638 0
-0.468085 -0.031915 0
-0.467791 0.011178 0
-0.446536 -0.010172 0
-0.446809 -0.053191 0
-0.42524 -0.031466 0
-0.468085 -0.031915 0
-0.446536 -0.010172 0
-0.425532 -0.074468 0
-0.404012 -0.052824 0
-0.446809 -0.053191 0
-0.42524 -0.031466 0
-0.425532 -0.074468 0
-0.404255 -0.095745 0
-0.404012 -0.052824 0
-0.382783 -0.074175 0
-0.404255 -0.095745 0
-0.382979 -0.117021 0
-0.382783 -0.074175 0
-0.361545 -0.095511 0
-0.382979 -0.117021 0
-0.361702 -0.138298 0
-0.361545 -0.095511 0
-0.340288 -0.116831 0
-0.361702 -0.138298 0
-0.340426 -0.159574 0
-0.340288 -0.116831 0
-0.319034 -0.138159 0
-0.340426 -0.159574 0
-0.319149 -0.180851 0
-0.319034 -0.138159 0
-0.297766 -0.159484 0
-0.319149 -0.180851 0
-0.297872 -0.202128 0
-0.297766 -0.159484 0
-0.276489 -0.180797 0
-0.297872 -0.202128 0
-0.276596 -0.223404 0
-0.276489 -0.180797 0
-0.255087 -0.202105 0
-0.255319 -0.244681 0
-0.233674 -0.223466 0
-0.276596 -0.223404 0
-0.255087 -0.202105 0
-0.234043 -0.265957 0
-0.212119 -0.244916 0
-0.255319 -0.244681 0
-0.233674 -0.223466 0
-0.234043 -0.265957 0
-0.212766 -0.287234 0
-0.212119 -0.244916 0
-0.190657 -0.266392 0
-0.191489 -0.308511 0
-0.169261 -0.287934 0
-0.212766 -0.287234 0
-0.190657 -0.266392 0
-0.170213 -0.329787 0
-0.147854 -0.309624 0
-0.191489 -0.308511 0
-0.169261 -0.287934 0
-0.170213 -0.329787 0
-0.148936 -0.351064 0
-0.147854 -0.309624 0
-0.126431 -0.331364 0
-0.12766 -0.37234 0
-0.105256 -0.353368 0
-0.148936 -0.351064 0
-0.126431 -0.331364 0
-0.12766 -0.37234 0
-0.106383 -0.393617 0
-0.105256 -0.353368 0
-0.083924 -0.375263 0
-0.106383 -0.393617 0
-0.085106 -0.414894 0
-0.083924 -0.375263 0
-0.062097 -0.396824 0
-0.085106 -0.414894 0
-0.06383 -0.43617 0
-0.062097 -0.396824 0
-0.040132 -0.418076 0
[...]
POINT_DATA 7228
VECTORS momentum double
0.0012008 -0.0011792 0
0.0058939 -0.0061995 0
0.0159625 -0.0012217 0
0.0197769 -0.00328244 0
0.0159625 -0.0012217 0
0.0197769 -0.00328244 0
0.0392484 -0.000151321 0
0.0394026 -0.00050693 0
-0.000115563 -0.000396185 0
6.57671e-05 -0.000396215 0
-3.44117e-05 -0.000893044 0
6.28622e-05 -0.00086678 0
-0.000195955 -0.000504821 0
-3.44117e-05 -0.000893044 0
7.21338e-05 -0.000544362 0
6.28622e-05 -0.00086678 0
-8.43007e-06 -0.000894054 0
-0.000195955 -0.000504821 0
3.39249e-06 -0.00100364 0
7.21338e-05 -0.000544362 0
5.11656e-05 -0.000533677 0
-8.43007e-06 -0.000894054 0
-1.71769e-05 -0.000594915 0
3.39249e-06 -0.00100364 0
4.35646e-05 -0.000780316 0
5.11656e-05 -0.000533677 0
-3.01696e-05 -0.000823367 0
-1.71769e-05 -0.000594915 0
5.58515e-05 -0.000470484 0
4.35646e-05 -0.000780316 0
-3.62381e-05 -0.000473282 0
-3.01696e-05 -0.000823367 0
0.000139713 -0.000850779 0
5.58515e-05 -0.000470484 0
2.58568e-05 -0.000554153 0
-3.62381e-05 -0.000473282 0
-0.000171912 -0.000400179 0
0.000139713 -0.000850779 0
-0.0003671 -0.000731226 0
2.58568e-05 -0.000554153 0
-0.000148124 -0.00113679 0
-0.0003671 -0.000731226 0
0.000159304 -0.000454446 0
2.58568e-05 -0.000554153 0
-4.09613e-05 -0.0011219 0
-0.000148124 -0.00113679 0
-0.000445422 -0.000485205 0
0.000159304 -0.000454446 0
6.84267e-05 -0.000626303 0
-4.09613e-05 -0.0011219 0
-0.000219177 -0.000446632 0
-0.000445422 -0.000485205 0
-2.61817e-05 -0.000291212 0
6.84267e-05 -0.000626303 0
-0.000258481 -0.000663977 0
-0.000219177 -0.000446632 0
-2.11392e-06 -0.000328197 0
-0.000258481 -0.000663977 0
3.0101e-05 -0.000214746 0
-0.000219177 -0.000446632 0
-4.6156e-05 -0.000678367 0
-2.11392e-06 -0.000328197 0
-2.18481e-05 -0.000718336 0
3.0101e-05 -0.000214746 0
8.58323e-06 -0.000364877 0
-4.6156e-05 -0.000678367 0
5.71396e-06 -0.000326747 0
-2.18481e-05 -0.000718336 0
-3.37561e-05 -0.000749735 0
8.58323e-06 -0.000364877 0
-6.50102e-06 -0.000767465 0
5.71396e-06 -0.000326747 0
2.38282e-06 -0.000373043 0
-3.37561e-05 -0.000749735 0
2.69908e-06 -0.000357939 0
-6.50102e-06 -0.000767465 0
-2.75946e-05 -0.000827157 0
2.38282e-06 -0.000373043 0
-3.7755e-06 -0.00083332 0
2.69908e-06 -0.000357939 0
6.23348e-06 -0.000375037 0
-2.75946e-05 -0.000827157 0
2.69139e-06 -0.000367923 0
-3.7755e-06 -0.00083332 0
-2.35476e-05 -0.000665266 0
-1.38797e-05 -0.00173828 0
-2.41195e-05 -0.000665562 0
-1.15071e-05 -0.00174061 0
-2.0807e-05 -0.000665636 0
-1.42184e-05 -0.00173585 0
-2.35476e-05 -0.000665266 0
-1.38797e-05 -0.00173828 0
-1.95574e-05 -0.000665113 0
-1.20242e-05 -0.00173322 0
-2.0807e-05 -0.000665636 0
-1.42184e-05 -0.00173585 0
-1.84478e-05 -0.000664063 0
-1.09685e-05 -0.00173046 0
-1.95574e-05 -0.000665113 0
-1.20242e-05 -0.00173322 0
-1.72823e-05 -0.000663279 0
-8.6044e-06 -0.00172807 0
-1.84478e-05 -0.000664063 0
-1.09685e-05 -0.00173046 0
-1.53184e-05 -0.000661673 0
-6.02971e-06 -0.00172569 0
-1.72823e-05 -0.000663279 0
-8.6044e-06 -0.00172807 0
-1.12849e-05 -0.000660797 0
-2.24723e-06 -0.00172344 0
-1.53184e-05 -0.000661673 0
-6.02971e-06 -0.00172569 0
-6.51196e-06 -0.000659065 0
3.09854e-06 -0.00172196 0
-1.12849e-05 -0.000660797 0
-2.24723e-06 -0.00172344 0
1.23097e-06 -0.000657709 0
8.5019e-06 -0.0017207 0
-6.51196e-06 -0.000659065 0
3.09854e-06 -0.00172196 0
1.01147e-05 -0.000656854 0
1.62255e-05 -0.00172037 0
1.23097e-06 -0.000657709 0
8.5019e-06 -0.0017207 0
2.22203e-05 -0.000655626 0
2.46323e-05 -0.00172013 0
1.01147e-05 -0.000656854 0
1.62255e-05 -0.00172037 0
3.64251e-05 -0.000654879 0
3.01483e-05 -0.00172165 0
2.22203e-05 -0.000655626 0
2.46323e-05 -0.00172013 0
3.64251e-05 -0.000654879 0
4.78872e-05 -0.000655567 0
3.01483e-05 -0.00172165 0
3.65406e-05 -0.00172401 0
5.90292e-05 -0.000655881 0
4.00617e-05 -0.00172871 0
4.78872e-05 -0.000655567 0
3.65406e-05 -0.00172401 0
6.52898e-05 -0.000658585 0
4.17381e-05 -0.00173261 0
5.90292e-05 -0.000655881 0
4.00617e-05 -0.00172871 0
6.35396e-05 -0.000661308 0
4.69107e-05 -0.00173447 0
6.52898e-05 -0.000658585 0
4.17381e-05 -0.00173261 0
6.26843e-05 -0.000662567 0
4.98051e-05 -0.00173414 0
6.35396e-05 -0.000661308 0
4.69107e-05 -0.00173447 0
5.42109e-05 -0.000664776 0
4.93396e-05 -0.00173288 0
6.26843e-05 -0.000662567 0
4.98051e-05 -0.00173414 0
3.94353e-05 -0.000665525 0
4.54263e-05 -0.00173062 0
5.42109e-05 -0.000664776 0
4.93396e-05 -0.00173288 0
2.65273e-05 -0.000664691 0
3.77845e-05 -0.00172662 0
3.94353e-05 -0.000665525 0
4.54263e-05 -0.00173062 0
1.71162e-05 -0.00066295 0
2.49539e-05 -0.00172422 0
2.65273e-05 -0.000664691 0
3.77845e-05 -0.00172662 0
1.00998e-05 -0.000663118 0
1.26065e-05 -0.00172054 0
1.71162e-05 -0.00066295 0
2.49539e-05 -0.00172422 0
-1.3956e-08 -0.000663013 0
3.4575e-06 -0.0017212 0
1.00998e-05 -0.000663118 0
1.26065e-05 -0.00172054 0
-5.89401e-06 -0.000663266 0
-7.33024e-06 -0.00171986 0
-1.3956e-08 -0.000663013 0
3.4575e-06 -0.0017212 0
-8.2088e-06 -0.000664854 0
-1.59019e-05 -0.00171628 0
-5.89401e-06 -0.000663266 0
-7.33024e-06 -0.00171986 0
-1.6919e-05 -0.000668566 0
-2.31875e-05 -0.00171133 0
-8.2088e-06 -0.000664854 0
-1.59019e-05 -0.00171628 0
-2.83374e-05 -0.000672912 0
-2.40236e-05 -0.00170494 0
-1.6919e-05 -0.000668566 0
-2.31875e-05 -0.00171133 0
-3.57773e-05 -0.000672154 0
-2.22167e-05 -0.00170307 0
-2.83374e-05 -0.000672912 0
-2.40236e-05 -0.00170494 0
-3.63523e-05 -0.000669727 0
-1.98938e-05 -0.00170321 0
-3.57773e-05 -0.000672154 0
-2.22167e-05 -0.00170307 0
-3.51589e-05 -0.000665877 0
-1.68635e-05 -0.00170618 0
-3.63523e-05 -0.000669727 0
-1.98938e-05 -0.00170321 0
-2.72159e-05 -0.000661115 0
-9.11663e-06 -0.00171008 0
-3.51589e-05 -0.000665877 0
-1.68635e-05 -0.00170618 0
-1.82031e-05 -0.000656307 0
-5.7605e-06 -0.0017146 0
-2.72159e-05 -0.000661115 0
-9.11663e-06 -0.00171008 0
-1.38655e-06 -0.000654704 0
3.47545e-06 -0.00171485 0
-1.82031e-05 -0.000656307 0
-5.7605e-06 -0.0017146 0
7.43357e-06 -0.000654345 0
1.00378e-05 -0.00171677 0
-1.38655e-06 -0.000654704 0
3.47545e-06 -0.00171485 0
2.89533e-05 -0.000654221 0
2.54871e-05 -0.00171543 0
7.43357e-06 -0.000654345 0
1.00378e-05 -0.00171677 0
3.61564e-05 -0.000655464 0
1.96216e-05 -0.00171573 0
2.89533e-05 -0.000654221 0
2.54871e-05 -0.00171543 0
4.76046e-05 -0.000658617 0
2.57132e-05 -0.00171217 0
3.61564e-05 -0.000655464 0
1.96216e-05 -0.00171573 0
2.32583e-05 -0.000662769 0
1.6855e-06 -0.00170893 0
4.76046e-05 -0.000658617 0
2.57132e-05 -0.00171217 0
2.65578e-05 -0.000667841 0
2.87986e-06 -0.00170089 0
2.32583e-05 -0.000662769 0
1.6855e-06 -0.00170893 0
2.65578e-05 -0.000667841 0
-3.13991e-05 -0.000673211 0
2.87986e-06 -0.00170089 0
-4.18842e-05 -0.00169682 0
-3.18468e-05 -0.000672442 0
-2.23139e-05 -0.00169493 0
-3.13991e-05 -0.000673211 0
-4.18842e-05 -0.00169682 0
-0.000124915 -0.000669281 0
-9.06557e-05 -0.00170243 0
-3.18468e-05 -0.000672442 0
-2.23139e-05 -0.00169493 0
-0.000104191 -0.000662217 0
-6.26414e-05 -0.00168558 0
-0.000124915 -0.000669281 0
-9.06557e-05 -0.00170243 0
-0.000279565 -0.000655071 0
-0.000230749 -0.00169189 0
-0.000104191 -0.000662217 0
-6.26414e-05 -0.00168558 0
-0.000300286 -0.000645192 0
-0.000258339 -0.00164559 0
-0.000279565 -0.000655071 0
-0.000230749 -0.00169189 0
-0.000300286 -0.000645192 0
-0.000774003 -0.000632387 0
-0.000258339 -0.00164559 0
-0.000732306 -0.00162686 0
-0.000774003 -0.000632387 0
-0.00111247 -0.000624005 0
-0.000732306 -0.00162686 0
-0.001094 -0.00145439 0
-0.00250288 -0.000614362 0
-0.00245465 -0.00129555 0
-0.00111247 -0.000624005 0
-0.001094 -0.00145439 0
-0.00395038 -0.000602069 0
-0.00386566 -0.000755071 0
-0.00250288 -0.000614362 0
-0.00245465 -0.00129555 0
-0.00765502 -0.000558743 0
-0.00742885 -0.000142937 0
-0.00395038 -0.000602069 0
-0.00386566 -0.000755071 0
-0.0118569 -0.000519117 0
-0.0115018 0.00137341 0
-0.00765502 -0.000558743 0
-0.00742885 -0.000142937 0
-0.0205826 -0.000417073 0
-0.0199937 0.00327995 0
-0.0118569 -0.000519117 0
-0.0115018 0.00137341 0
-0.0309977 -0.000379538 0
-0.0299229 0.00740619 0
-0.0205826 -0.000417073 0
-0.0199937 0.00327995 0
-0.0506423 -6.24629e-05 0
-0.0490174 0.0123906 0
-0.0309977 -0.000379538 0
-0.0299229 0.00740619 0
-0.0752427 0.000147202 0
-0.0731178 0.0235433 0
-0.0506423 -6.24629e-05 0
-0.0490174 0.0123906 0
-0.115413 -4.24288e-05 0
-0.116265 0.0242133 0
-0.0752427 0.000147202 0
-0.0731178 0.0235433 0
-0.130319 -0.00034492 0
-0.149001 -0.0118459 0
-0.115413 -4.24288e-05 0
-0.116265 0.0242133 0
0.00822552 -0.00244679 0
0.015967 -0.0383197 0
-0.0149866 -0.00188989 0
-0.0103399 -0.0522131 0
-6.68703e-06 -0.000384185 0
-3.98205e-05 -0.000826879 0
6.23348e-06 -0.000375037 0
-2.75946e-05 -0.000827157 0
-6.68703e-06 -0.000384185 0
-2.40624e-05 -0.000393862 0
-3.98205e-05 -0.000826879 0
-4.25521e-05 -0.000823716 0
-3.55176e-05 -0.000396444 0
-4.74054e-05 -0.000824941 0
-2.40624e-05 -0.000393862 0
-4.25521e-05 -0.000823716 0
-3.55176e-05 -0.000396444 0
-3.53653e-05 -0.000401616 0
-4.74054e-05 -0.000824941 0
-5.0327e-05 -0.000823038 0
-3.53653e-05 -0.000401616 0
-3.38736e-05 -0.000403334 0
-5.0327e-05 -0.000823038 0
-4.7043e-05 -0.000826054 0
-3.38736e-05 -0.000403334 0
-2.91965e-05 -0.000406325 0
-4.7043e-05 -0.000826054 0
-4.07162e-05 -0.000828434 0
-2.91965e-05 -0.000406325 0
-2.20584e-05 -0.000405976 0
-4.07162e-05 -0.000828434 0
-3.47669e-05 -0.000833964 0
-2.20584e-05 -0.000405976 0
-1.39745e-05 -0.000408856 0
-3.47669e-05 -0.000833964 0
-2.98612e-05 -0.000837772 0
-1.39745e-05 -0.000408856 0
-9.1493e-06 -0.0004106 0
-2.98612e-05 -0.000837772 0
-2.15678e-05 -0.000841834 0
-9.1493e-06 -0.0004106 0
-5.04938e-06 -0.000412862 0
-2.15678e-05 -0.000841834 0
-1.44891e-05 -0.000844905 0
-5.04938e-06 -0.000412862 0
-1.67787e-06 -0.000413726 0
-1.44891e-05 -0.000844905 0
-7.98921e-06 -0.000847493 0
-1.67787e-06 -0.000413726 0
7.83351e-07 -0.000415003 0
-7.98921e-06 -0.000847493 0
-3.50377e-06 -0.00084916 0
7.83351e-07 -0.000415003 0
2.51538e-06 -0.000415196 0
-3.50377e-06 -0.00084916 0
6.34286e-07 -0.000850492 0
2.51538e-06 -0.000415196 0
3.45731e-06 -0.000415579 0
6.34286e-07 -0.000850492 0
2.44786e-06 -0.000851489 0
3.45731e-06 -0.000415579 0
4.75168e-06 -0.000415594 0
2.44786e-06 -0.000851489 0
3.63176e-06 -0.000852724 0
4.75168e-06 -0.000415594 0
7.14418e-06 -0.000415813 0
3.63176e-06 -0.000852724 0
2.67633e-06 -0.000854508 0
7.14418e-06 -0.000415813 0
7.90089e-06 -0.000416454 0
2.67633e-06 -0.000854508 0
1.82524e-06 -0.000855914 0
7.90089e-06 -0.000416454 0
7.47879e-06 -0.000417332 0
1.82524e-06 -0.000855914 0
2.03243e-06 -0.000857809 0
7.47879e-06 -0.000417332 0
6.96213e-06 -0.000418228 0
2.03243e-06 -0.000857809 0
2.39535e-06 -0.000859646 0
6.96213e-06 -0.000418228 0
5.05014e-06 -0.000418948 0
2.39535e-06 -0.000859646 0
2.07221e-06 -0.000861245 0
5.05014e-06 -0.000418948 0
3.93659e-06 -0.00041921 0
2.07221e-06 -0.000861245 0
1.58108e-06 -0.000862854 0
3.93659e-06 -0.00041921 0
3.02138e-06 -0.000419646 0
1.58108e-06 -0.000862854 0
8.84908e-07 -0.000863724 0
3.02138e-06 -0.000419646 0
2.5949e-06 -0.000419648 0
8.84908e-07 -0.000863724 0
5.96569e-07 -0.000864276 0
2.5949e-06 -0.000419648 0
2.08431e-06 -0.000419603 0
5.96569e-07 -0.000864276 0
-4.07629e-07 -0.000864582 0
0.0975437 -0.0950156 0
0.11377 -0.0594985 0
0.142945 -0.139706 0
0.16947 -0.0906496 0
0.0975437 -0.0950156 0
0.0640744 -0.0630761 0
0.11377 -0.0594985 0
0.0741961 -0.0438221 0
0.0640744 -0.0630761 0
0.0437082 -0.04359 0
0.0741961 -0.0438221 0
0.0491703 -0.032602 0
0.0295798 -0.0296529 0
0.0325623 -0.0237279 0
0.0437082 -0.04359 0
0.0491703 -0.032602 0
0.0200203 -0.0203677 0
0.0214975 -0.0168705 0
0.0295798 -0.0296529 0
0.0325623 -0.0237279 0
0.0200203 -0.0203677 0
0.0132211 -0.0135997 0
0.0214975 -0.0168705 0
0.013809 -0.0117751 0
0.0132211 -0.0135997 0
0.00859246 -0.00906512 0
0.013809 -0.0117751 0
0.00869327 -0.00801786 0
0.00542245 -0.00590466 0
0.00522855 -0.00540042 0
0.00859246 -0.00906512 0
0.00869327 -0.00801786 0
0.00542245 -0.00590466 0
0.00335069 -0.00387213 0
0.00522855 -0.00540042 0
0.00302664 -0.00362112 0
0.00335069 -0.00387213 0
0.00200272 -0.0025195 0
0.00302664 -0.00362112 0
0.00159658 -0.00246736 0
0.00200272 -0.0025195 0
0.00117461 -0.00169757 0
0.00159658 -0.00246736 0
0.00073208 -0.00173052 0
0.00117461 -0.00169757 0
0.00065661 -0.00117049 0
0.00073208 -0.00173052 0
0.000194337 -0.00127052 0
0.000358101 -0.000867155 0
-0.000112939 -0.0009871 0
0.00065661 -0.00117049 0
0.000194337 -0.00127052 0
0.00017293 -0.000678953 0
-0.00029465 -0.000808975 0
0.000358101 -0.000867155 0
-0.000112939 -0.0009871 0
0.00017293 -0.000678953 0
6.8861e-05 -0.000571342 0
-0.00029465 -0.000808975 0
-0.000391024 -0.000704137 0
6.8861e-05 -0.000571342 0
8.63004e-06 -0.000507618 0
-0.000391024 -0.000704137 0
-0.000440709 -0.000637829 0
8.63004e-06 -0.000507618 0
-2.46492e-05 -0.000469297 0
-0.000440709 -0.000637829 0
-0.000465102 -0.00060121 0
-2.46492e-05 -0.000469297 0
-3.47336e-05 -0.000452987 0
-0.000465102 -0.00060121 0
-0.000470288 -0.000581258 0
-3.47336e-05 -0.000452987 0
-4.14927e-05 -0.000440811 0
-0.000470288 -0.000581258 0
-0.000470519 -0.000570781 0
-4.14927e-05 -0.000440811 0
-2.46723e-05 -0.00045032 0
-0.000470519 -0.000570781 0
-0.0004523 -0.000571668 0
-2.46723e-05 -0.00045032 0
-2.14186e-05 -0.000451179 0
-0.0004523 -0.000571668 0
-0.000443551 -0.000578743 0
1.07249e-05 -0.000469467 0
-0.000408491 -0.00060721 0
-2.14186e-05 -0.000451179 0
-0.000443551 -0.000578743 0
2.50605e-05 -0.000473995 0
-0.000413888 -0.000618875 0
1.07249e-05 -0.000469467 0
-0.000408491 -0.00060721 0
2.50605e-05 -0.000473995 0
6.84686e-05 -0.00051782 0
-0.000413888 -0.000618875 0
-0.00037237 -0.000642084 0
7.22574e-05 -0.000534473 0
-0.000367015 -0.000638085 0
6.84686e-05 -0.00051782 0
-0.00037237 -0.000642084 0
0.000112151 -0.00060249 0
-0.000269767 -0.000670783 0
7.22574e-05 -0.000534473 0
-0.000367015 -0.000638085 0
0.000112151 -0.00060249 0
9.09123e-05 -0.000580724 0
-0.000269767 -0.000670783 0
-0.000258009 -0.000697082 0
0.000171667 -0.000645865 0
-0.00018902 -0.000767741 0
9.09123e-05 -0.000580724 0
-0.000258009 -0.000697082 0
0.000171667 -0.000645865 0
0.000177437 -0.000650754 0
-0.00018902 -0.000767741 0
-0.000235732 -0.000760609 0
0.000177437 -0.000650754 0
0.000273521 -0.000766954 0
-0.000235732 -0.000760609 0
-0.000100784 -0.000861734 0
0.000273521 -0.000766954 0
0.000211786 -0.000706748 0
-0.000100784 -0.000861734 0
-0.000125728 -0.000768487 0
0.000211786 -0.000706748 0
0.000142697 -0.000611977 0
-0.000125728 -0.000768487 0
0.000156194 -0.00101146 0
0.000142697 -0.000611977 0
0.000121161 -0.000430814 0
0.000156194 -0.00101146 0
-1.66552e-05 -0.000497153 0
0.000121161 -0.000430814 0
8.24719e-05 -0.0004322 0
-1.66552e-05 -0.000497153 0
-7.1311e-05 -0.000866086 0
8.24719e-05 -0.0004322 0
0.000238487 -0.000282969 0
-7.1311e-05 -0.000866086 0
0.000127267 -0.000725239 0
0.000238487 -0.000282969 0
0.000193592 -0.000366521 0
0.000127267 -0.000725239 0
-0.00021503 -0.000823139 0
0.000193592 -0.000366521 0
0.000114503 -0.000440745 0
-0.00021503 -0.000823139 0
7.14446e-05 -0.000765452 0
0.000114503 -0.000440745 0
-0.000115563 -0.000396185 0
7.14446e-05 -0.000765452 0
-3.44117e-05 -0.000893044 0
5.96569e-07 -0.000864276 0
-4.07629e-07 -0.000864582 0
-5.42873e-07 -0.000478776 0
-1.87021e-06 -0.000481006 0
-5.42873e-07 -0.000478776 0
-1.87021e-06 -0.000481006 0
-2.72174e-06 -0.000818248 0
-4.3077e-06 -0.000819306 0
-2.72174e-06 -0.000818248 0
-4.3077e-06 -0.000819306 0
-5.41191e-06 -0.000525016 0
-6.05297e-06 -0.000526637 0
-5.41191e-06 -0.000525016 0
-6.05297e-06 -0.000526637 0
-6.96522e-06 -0.00076939 0
-9.35443e-06 -0.000771354 0
-6.96522e-06 -0.00076939 0
-9.35443e-06 -0.000771354 0
-1.0355e-05 -0.000526648 0
-1.16324e-05 -0.000528172 0
-1.0355e-05 -0.000526648 0
-1.16324e-05 -0.000528172 0
-1.18889e-05 -0.000672102 0
-1.41559e-05 -0.000674108 0
-1.55733e-05 -0.000449355 0
-1.18889e-05 -0.000672102 0
-1.68453e-05 -0.000451259 0
-1.41559e-05 -0.000674108 0
-1.55733e-05 -0.000449355 0
-1.68453e-05 -0.000451259 0
-1.81069e-05 -0.000513822 0
-1.9166e-05 -0.000516094 0
-1.81069e-05 -0.000513822 0
-1.9166e-05 -0.000516094 0
-2.24388e-05 -0.000320498 0
-2.26881e-05 -0.000323675 0
-2.24388e-05 -0.000320498 0
-2.26881e-05 -0.000323675 0
-2.7365e-05 -0.000345861 0
-2.7314e-05 -0.00035016 0
-2.7365e-05 -0.000345861 0
-2.7314e-05 -0.00035016 0
-3.47407e-05 -0.000205771 0
-3.47163e-05 -0.000212443 0
-3.47407e-05 -0.000205771 0
-3.47163e-05 -0.000212443 0
-4.49559e-05 -0.000222066 0
-4.72572e-05 -0.000231712 0
-4.49559e-05 -0.000222066 0
-4.72572e-05 -0.000231712 0
-5.88708e-05 -0.000141378 0
-6.53206e-05 -0.000154379 0
-5.88708e-05 -0.000141378 0
-6.53206e-05 -0.000154379 0
-7.64741e-05 -0.000150253 0
-9.08802e-05 -0.000166913 0
-7.64741e-05 -0.000150253 0
-9.08802e-05 -0.000166913 0
-9.6654e-05 -0.000115375 0
-0.00012279 -0.000133748 0
-9.6654e-05 -0.000115375 0
-0.00012279 -0.000133748 0
-0.000116316 -0.00010103 0
-0.000156668 -0.000118592 0
-0.000116316 -0.00010103 0
-0.000156668 -0.000118592 0
-0.00013106 -9.89025e-05 0
-0.00018592 -0.000110749 0
-0.00013106 -9.89025e-05 0
-0.00018592 -0.000110749 0
-0.000135151 -5.50385e-05 0
-0.000198545 -5.68962e-05 0
-0.000135151 -5.50385e-05 0
-0.000198545 -5.68962e-05 0
-0.000126761 -0.000104184 0
-0.000188239 -9.39496e-05 0
-0.000126761 -0.000104184 0
-0.000188239 -9.39496e-05 0
-0.000106436 -5.61089e-05 0
-0.000156046 -3.81188e-05 0
-0.000106436 -5.61089e-05 0
-0.000156046 -3.81188e-05 0
-8.14339e-05 -0.000207057 0
-0.00011602 -0.000185839 0
-8.14339e-05 -0.000207057 0
-0.00011602 -0.000185839 0
-5.47456e-05 -0.00018108 0
-7.57453e-05 -0.000162383 0
-5.47456e-05 -0.00018108 0
-7.57453e-05 -0.000162383 0
-3.54327e-05 -0.000472534 0
-4.60872e-05 -0.00045737 0
-3.54327e-05 -0.000472534 0
-4.60872e-05 -0.00045737 0
-1.69968e-05 -0.00045111 0
-2.14188e-05 -0.000442743 0
-1.69968e-05 -0.00045111 0
-2.14188e-05 -0.000442743 0
-1.36336e-05 -0.000878575 0
-1.63126e-05 -0.000872222 0
-1.36336e-05 -0.000878575 0
-1.63126e-05 -0.000872222 0
-3.88822e-06 -0.000771235 0
-3.78023e-06 -0.00076743 0
-3.88822e-06 -0.000771235 0
-3.78023e-06 -0.00076743 0
-5.80739e-06 -0.00129057 0
-6.58085e-06 -0.00128803 0
-5.80739e-06 -0.00129057 0
-6.58085e-06 -0.00128803 0
1.7877e-06 -0.000943245 0
3.48966e-06 -0.000943464 0
1.7877e-06 -0.000943245 0
3.48966e-06 -0.000943464 0
-7.79567e-06 -0.00154922 0
-6.56355e-06 -0.00155227 0
-7.79567e-06 -0.00154922 0
-6.56355e-06 -0.00155227 0
-8.72616e-06 -0.000874271 0
-7.67913e-06 -0.000876221 0
-8.72616e-06 -0.000874271 0
-7.67913e-06 -0.000876221 0
-1.38797e-05 -0.00173828 0
-1.15071e-05 -0.00174061 0
0.11377 -0.0594985 0
0.110878 -0.00900385 0
0.16947 -0.0906496 0
0.171225 -0.00608359 0
0.11377 -0.0594985 0
0.0741961 -0.0438221 0
0.110878 -0.00900385 0
0.072627 -0.016012 0
0.0741961 -0.0438221 0
0.0491703 -0.032602 0
0.072627 -0.016012 0
0.0488643 -0.016669 0
0.0325623 -0.0237279 0
0.0326328 -0.014149 0
0.0491703 -0.032602 0
0.0488643 -0.016669 0
0.0214975 -0.0168705 0
0.021734 -0.0112749 0
0.0325623 -0.0237279 0
0.0326328 -0.014149 0
0.0214975 -0.0168705 0
0.013809 -0.0117751 0
0.021734 -0.0112749 0
0.0140031 -0.00820685 0
0.013809 -0.0117751 0
0.00869327 -0.00801786 0
0.0140031 -0.00820685 0
0.00891343 -0.00586327 0
0.00522855 -0.00540042 0
0.00541238 -0.00394724 0
0.00869327 -0.00801786 0
0.00891343 -0.00586327 0
0.00522855 -0.00540042 0
0.00302664 -0.00362112 0
0.00541238 -0.00394724 0
0.00319824 -0.00268217 0
0.00302664 -0.00362112 0
0.00159658 -0.00246736 0
0.00319824 -0.00268217 0
0.0017572 -0.00174362 0
0.00159658 -0.00246736 0
0.00073208 -0.00173052 0
0.0017572 -0.00174362 0
0.000905186 -0.0011862 0
0.00073208 -0.00173052 0
0.000194337 -0.00127052 0
0.000905186 -0.0011862 0
0.000370735 -0.000791252 0
-0.000112939 -0.0009871 0
7.29429e-05 -0.000576581 0
0.000194337 -0.00127052 0
0.000370735 -0.000791252 0
-0.00029465 -0.000808975 0
-0.000113867 -0.000431805 0
-0.000112939 -0.0009871 0
7.29429e-05 -0.000576581 0
-0.00029465 -0.000808975 0
-0.000391024 -0.000704137 0
-0.000113867 -0.000431805 0
-0.00021911 -0.000353757 0
-0.000391024 -0.000704137 0
-0.000440709 -0.000637829 0
-0.00021911 -0.000353757 0