# vtk DataFile Version 3.0
#This file was generated by the deal.II library on 2016/12/20 at 10:56:36
ASCII
DATASET UNSTRUCTURED_GRID

POINTS 7204 double
-1 0.5 0
-0.978723 0.478723 0
-0.970149 0.5 0
-0.964976 0.485465 0
-0.970149 0.5 0
-0.964976 0.485465 0
-0.940299 0.5 0
-0.945882 0.477585 0
0.12 -0.5 0
0.15 -0.5 0
0.119014 -0.4708 0
0.15 -0.471429 0
0.11755 -0.441479 0
0.119014 -0.4708 0
0.15 -0.442857 0
0.15 -0.471429 0
0.117242 -0.412206 0
0.11755 -0.441479 0
0.15 -0.414286 0
0.15 -0.442857 0
0.118129 -0.383064 0
0.117242 -0.412206 0
0.15 -0.385714 0
0.15 -0.414286 0
0.12021 -0.354337 0
0.118129 -0.383064 0
0.15 -0.357143 0
0.15 -0.385714 0
0.121793 -0.32584 0
0.12021 -0.354337 0
0.15 -0.328571 0
0.15 -0.357143 0
0.122717 -0.296869 0
0.121793 -0.32584 0
0.15 -0.3 0
0.15 -0.328571 0
0.123759 -0.266752 0
0.122717 -0.296869 0
0.153091 -0.267708 0
0.15 -0.3 0
0.18456 -0.26795 0
0.153091 -0.267708 0
0.183333 -0.3 0
0.15 -0.3 0
0.216606 -0.268111 0
0.18456 -0.26795 0
0.216667 -0.3 0
0.183333 -0.3 0
0.24835 -0.26841 0
0.216606 -0.268111 0
0.25 -0.3 0
0.216667 -0.3 0
0.278782 -0.268564 0
0.24835 -0.26841 0
0.279437 -0.298917 0
0.25 -0.3 0
0.279638 -0.328111 0
0.279437 -0.298917 0
0.25 -0.328571 0
0.25 -0.3 0
0.27971 -0.356801 0
0.279638 -0.328111 0
0.25 -0.357143 0
0.25 -0.328571 0
0.279677 -0.385395 0
0.27971 -0.356801 0
0.25 -0.385714 0
0.25 -0.357143 0
0.279641 -0.413938 0
0.279677 -0.385395 0
0.25 -0.414286 0
0.25 -0.385714 0
0.279666 -0.442534 0
0.279641 -0.413938 0
0.25 -0.442857 0
0.25 -0.414286 0
0.279811 -0.471266 0
0.279666 -0.442534 0
0.25 -0.471429 0
0.25 -0.442857 0
0.28 -0.5 0
0.279811 -0.471266 0
0.25 -0.5 0
0.25 -0.471429 0
0.970149 0.5 0
0.970096 0.46978 0
1 0.5 0
1 0.469697 0
0.940299 0.5 0
0.940231 0.46984 0
0.970149 0.5 0
0.970096 0.46978 0
0.910448 0.5 0
0.910371 0.469856 0
0.940299 0.5 0
0.940231 0.46984 0
0.880597 0.5 0
0.880527 0.469909 0
0.910448 0.5 0
0.910371 0.469856 0
0.850746 0.5 0
0.850684 0.469926 0
0.880597 0.5 0
0.880527 0.469909 0
0.820896 0.5 0
0.820842 0.469978 0
0.850746 0.5 0
0.850684 0.469926 0
0.791045 0.5 0
0.791001 0.470016 0
0.820896 0.5 0
0.820842 0.469978 0
0.761194 0.5 0
0.761159 0.470055 0
0.791045 0.5 0
0.791001 0.470016 0
0.731343 0.5 0
0.731316 0.470091 0
0.761194 0.5 0
0.761159 0.470055 0
0.701493 0.5 0
0.701472 0.470118 0
0.731343 0.5 0
0.731316 0.470091 0
0.671642 0.5 0
0.671627 0.470134 0
0.701493 0.5 0
0.701472 0.470118 0
0.641791 0.5 0
0.64178 0.470142 0
0.671642 0.5 0
0.671627 0.470134 0
0.641791 0.5 0
0.61194 0.5 0
0.64178 0.470142 0
0.611934 0.470065 0
0.58209 0.5 0
0.582089 0.470002 0
0.61194 0.5 0
0.611934 0.470065 0
0.552239 0.5 0
0.552248 0.469853 0
0.58209 0.5 0
0.582089 0.470002 0
0.522388 0.5 0
0.522413 0.469718 0
0.552239 0.5 0
0.552248 0.469853 0
0.492537 0.5 0
0.492577 0.469656 0
0.522388 0.5 0
0.522413 0.469718 0
0.462687 0.5 0
0.462743 0.469571 0
0.492537 0.5 0
0.492577 0.469656 0
0.432836 0.5 0
0.432895 0.46963 0
0.462687 0.5 0
0.462743 0.469571 0
0.402985 0.5 0
0.403046 0.469669 0
0.432836 0.5 0
0.432895 0.46963 0
0.373134 0.5 0
0.373191 0.469745 0
0.402985 0.5 0
0.403046 0.469669 0
0.343284 0.5 0
0.343335 0.469723 0
0.373134 0.5 0
0.373191 0.469745 0
0.313433 0.5 0
0.313478 0.469741 0
0.343284 0.5 0
0.343335 0.469723 0
0.283582 0.5 0
0.283622 0.469783 0
0.313433 0.5 0
0.313478 0.469741 0
0.253731 0.5 0
0.253768 0.469742 0
0.283582 0.5 0
0.283622 0.469783 0
0.223881 0.5 0
0.223918 0.469737 0
0.253731 0.5 0
0.253768 0.469742 0
0.19403 0.5 0
0.194064 0.46981 0
0.223881 0.5 0
0.223918 0.469737 0
0.164179 0.5 0
0.16421 0.469881 0
0.19403 0.5 0
0.194064 0.46981 0
0.134328 0.5 0
0.134355 0.46994 0
0.164179 0.5 0
0.16421 0.469881 0
0.104478 0.5 0
0.1045 0.469997 0
0.134328 0.5 0
0.134355 0.46994 0
0.074627 0.5 0
0.074645 0.470051 0
0.104478 0.5 0
0.1045 0.469997 0
0.044776 0.5 0
0.04479 0.470093 0
0.074627 0.5 0
0.074645 0.470051 0
0.014925 0.5 0
0.014935 0.47012 0
0.044776 0.5 0
0.04479 0.470093 0
-0.014925 0.5 0
-0.014918 0.470135 0
0.014925 0.5 0
0.014935 0.47012 0
-0.044776 0.5 0
-0.044771 0.470143 0
-0.014925 0.5 0
-0.014918 0.470135 0
-0.074627 0.5 0
-0.074623 0.470146 0
-0.044776 0.5 0
-0.044771 0.470143 0
-0.104478 0.5 0
-0.104496 0.469979 0
-0.074627 0.5 0
-0.074623 0.470146 0
-0.134328 0.5 0
-0.134359 0.469935 0
-0.104478 0.5 0
-0.104496 0.469979 0
-0.164179 0.5 0
-0.164225 0.469839 0
-0.134328 0.5 0
-0.134359 0.469935 0
-0.164179 0.5 0
-0.19403 0.5 0
-0.164225 0.469839 0
-0.194083 0.469797 0
-0.223881 0.5 0
-0.22394 0.469753 0
-0.19403 0.5 0
-0.194083 0.469797 0
-0.253731 0.5 0
-0.253798 0.469819 0
-0.223881 0.5 0
-0.22394 0.469753 0
-0.283582 0.5 0
-0.283647 0.470019 0
-0.253731 0.5 0
-0.253798 0.469819 0
-0.313433 0.5 0
-0.313491 0.470151 0
-0.283582 0.5 0
-0.283647 0.470019 0
-0.343284 0.5 0
-0.343348 0.470381 0
-0.313433 0.5 0
-0.313491 0.470151 0
-0.343284 0.5 0
-0.373134 0.5 0
-0.343348 0.470381 0
-0.373195 0.470395 0
-0.373134 0.5 0
-0.402985 0.5 0
-0.373195 0.470395 0
-0.403049 0.470404 0
-0.432836 0.5 0
-0.432937 0.470297 0
-0.402985 0.5 0
-0.403049 0.470404 0
-0.462687 0.5 0
-0.462848 0.469995 0
-0.432836 0.5 0
-0.432937 0.470297 0
-0.492537 0.5 0
-0.492807 0.469765 0
-0.462687 0.5 0
-0.462848 0.469995 0
-0.522388 0.5 0
-0.52276 0.46958 0
-0.492537 0.5 0
-0.492807 0.469765 0
-0.552239 0.5 0
-0.55273 0.469652 0
-0.522388 0.5 0
-0.52276 0.46958 0
-0.58209 0.5 0
-0.582662 0.469731 0
-0.552239 0.5 0
-0.55273 0.469652 0
-0.61194 0.5 0
-0.612594 0.469999 0
-0.58209 0.5 0
-0.582662 0.469731 0
-0.641791 0.5 0
-0.642647 0.470419 0
-0.61194 0.5 0
-0.612594 0.469999 0
-0.671642 0.5 0
-0.672638 0.470543 0
-0.641791 0.5 0
-0.642647 0.470419 0
-0.701493 0.5 0
-0.702968 0.4698 0
-0.671642 0.5 0
-0.672638 0.470543 0
-0.701493 0.5 0
-0.731343 0.5 0
-0.702968 0.4698 0
-0.733232 0.468149 0
0.31 -0.5 0
0.309694 -0.471123 0
0.28 -0.5 0
0.279811 -0.471266 0
0.31 -0.5 0
0.34 -0.5 0
0.309694 -0.471123 0
0.339686 -0.471033 0
0.37 -0.5 0
0.369721 -0.471055 0
0.34 -0.5 0
0.339686 -0.471033 0
0.37 -0.5 0
0.4 -0.5 0
0.369721 -0.471055 0
0.399756 -0.470957 0
0.4 -0.5 0
0.43 -0.5 0
0.399756 -0.470957 0
0.429805 -0.470822 0
0.43 -0.5 0
0.46 -0.5 0
0.429805 -0.470822 0
0.459835 -0.470712 0
0.46 -0.5 0
0.49 -0.5 0
0.459835 -0.470712 0
0.489873 -0.470554 0
0.49 -0.5 0
0.52 -0.5 0
0.489873 -0.470554 0
0.519906 -0.470379 0
0.52 -0.5 0
0.55 -0.5 0
0.519906 -0.470379 0
0.54993 -0.470248 0
0.55 -0.5 0
0.58 -0.5 0
0.54993 -0.470248 0
0.579948 -0.470155 0
0.58 -0.5 0
0.61 -0.5 0
0.579948 -0.470155 0
0.609962 -0.470091 0
0.61 -0.5 0
0.64 -0.5 0
0.609962 -0.470091 0
0.639972 -0.47005 0
0.64 -0.5 0
0.67 -0.5 0
0.639972 -0.47005 0
0.66998 -0.470026 0
0.67 -0.5 0
0.7 -0.5 0
0.66998 -0.470026 0
0.699986 -0.470013 0
0.7 -0.5 0
0.73 -0.5 0
0.699986 -0.470013 0
0.72999 -0.470006 0
0.73 -0.5 0
0.76 -0.5 0
0.72999 -0.470006 0
0.759994 -0.470003 0
0.76 -0.5 0
0.79 -0.5 0
0.759994 -0.470003 0
0.78998 -0.469916 0
0.79 -0.5 0
0.82 -0.5 0
0.78998 -0.469916 0
0.819956 -0.469877 0
0.82 -0.5 0
0.85 -0.5 0
0.819956 -0.469877 0
0.849929 -0.469833 0
0.85 -0.5 0
0.88 -0.5 0
0.849929 -0.469833 0
0.879924 -0.469805 0
0.88 -0.5 0
0.91 -0.5 0
0.879924 -0.469805 0
0.909913 -0.469792 0
0.91 -0.5 0
0.94 -0.5 0
0.909913 -0.469792 0
0.939922 -0.469775 0
0.94 -0.5 0
0.97 -0.5 0
0.939922 -0.469775 0
0.969956 -0.46974 0
0.97 -0.5 0
1 -0.5 0
0.969956 -0.46974 0
1 -0.469697 0
-0.744681 0.244681 0
-0.723404 0.223404 0
-0.723868 0.265704 0
-0.702394 0.245107 0
-0.702128 0.202128 0
-0.680976 0.2243 0
-0.723404 0.223404 0
-0.702394 0.245107 0
-0.702128 0.202128 0
-0.680851 0.180851 0
-0.680976 0.2243 0
-0.659597 0.203254 0
-0.680851 0.180851 0
-0.659574 0.159574 0
-0.659597 0.203254 0
-0.638233 0.18203 0
-0.638298 0.138298 0
-0.616915 0.16063 0
-0.659574 0.159574 0
-0.638233 0.18203 0
-0.617021 0.117021 0
-0.595665 0.139192 0
-0.638298 0.138298 0
-0.616915 0.16063 0
-0.617021 0.117021 0
-0.595745 0.095745 0
-0.595665 0.139192 0
-0.574431 0.117764 0
-0.595745 0.095745 0
-0.574468 0.074468 0
-0.574431 0.117764 0
-0.553204 0.096309 0
-0.553191 0.053191 0
-0.53184 0.075023 0
-0.574468 0.074468 0
-0.553204 0.096309 0
-0.553191 0.053191 0
-0.531915 0.031915 0
-0.53184 0.075023 0
-0.510492 0.053733 0
-0.531915 0.031915 0
-0.510638 0.010638 0
-0.510492 0.053733 0
-0.489127 0.032461 0
-0.510638 0.010638 0
-0.489362 -0.010638 0
-0.489127 0.032461 0
-0.467791 0.011178 0
-0.489362 -0.010638 0
-0.468085 -0.031915 0
-0.467791 0.011178 0
-0.446536 -0.010172 0
-0.446809 -0.053191 0
-0.42524 -0.031466 0
-0.468085 -0.031915 0
-0.446536 -0.010172 0
-0.425532 -0.074468 0
-0.404012 -0.052824 0
-0.446809 -0.053191 0
-0.42524 -0.031466 0
-0.425532 -0.074468 0
-0.404255 -0.095745 0
-0.404012 -0.052824 0
-0.382783 -0.074175 0
-0.404255 -0.095745 0
-0.382979 -0.117021 0
-0.382783 -0.074175 0
-0.361545 -0.095511 0
-0.382979 -0.117021 0
-0.361702 -0.138298 0
-0.361545 -0.095511 0
-0.340288 -0.116831 0
-0.361702 -0.138298 0
-0.340426 -0.159574 0
-0.340288 -0.116831 0
-0.319034 -0.138159 0
-0.340426 -0.159574 0
-0.319149 -0.180851 0
-0.319034 -0.138159 0
-0.297766 -0.159484 0
-0.319149 -0.180851 0
-0.297872 -0.202128 0
-0.297766 -0.159484 0
-0.276489 -0.180797 0
-0.297872 -0.202128 0
-0.276596 -0.223404 0
-0.276489 -0.180797 0
-0.255087 -0.202105 0
-0.255319 -0.244681 0
-0.233674 -0.223466 0
-0.276596 -0.223404 0
-0.255087 -0.202105 0
-0.234043 -0.265957 0
-0.212119 -0.244916 0
-0.255319 -0.244681 0
-0.233674 -0.223466 0
-0.234043 -0.265957 0
-0.212766 -0.287234 0
-0.212119 -0.244916 0
-0.190657 -0.266392 0
-0.191489 -0.308511 0
-0.169261 -0.287934 0
-0.212766 -0.287234 0
-0.190657 -0.266392 0
-0.170213 -0.329787 0
-0.147854 -0.309624 0
-0.191489 -0.308511 0
-0.169261 -0.287934 0
-0.170213 -0.329787 0
-0.148936 -0.351064 0
-0.147854 -0.309624 0
-0.126431 -0.331364 0
-0.12766 -0.37234 0
-0.105256 -0.353368 0
-0.148936 -0.351064 0
-0.126431 -0.331364 0
-0.12766 -0.37234 0
-0.106383 -0.393617 0
-0.105256 -0.353368 0
-0.083924 -0.375263 0
-0.106383 -0.393617 0
-0.085106 -0.414894 0
-0.083924 -0.375263 0
-0.062097 -0.396824 0
[...]
POINT_DATA 7204
VECTORS momentum double
0.00134911 -0.00106669 0
0.00476487 -0.00521334 0
0.00975216 -0.00132207 0
0.0116149 -0.00391384 0
0.00975216 -0.00132207 0
0.0116149 -0.00391384 0
0.0181265 -0.000609678 0
0.022618 -0.00774714 0
-0.000175638 -0.000387342 0
5.5255e-05 -0.00037107 0
-7.25556e-05 -0.000955389 0
6.21456e-05 -0.000946382 0
-0.000232736 -0.000558623 0
-7.25556e-05 -0.000955389 0
6.13456e-05 -0.000554845 0
6.21456e-05 -0.000946382 0
1.07383e-05 -0.000884646 0
-0.000232736 -0.000558623 0
1.36069e-05 -0.0010163 0
6.13456e-05 -0.000554845 0
2.54155e-05 -0.000348217 0
1.07383e-05 -0.000884646 0
-4.27103e-05 -0.000301862 0
1.36069e-05 -0.0010163 0
0.000129901 -0.000397087 0
2.54155e-05 -0.000348217 0
2.25376e-05 -0.000563765 0
-4.27103e-05 -0.000301862 0
-5.18985e-06 7.93658e-05 0
0.000129901 -0.000397087 0
-0.000169992 0.000323986 0
2.25376e-05 -0.000563765 0
0.000511088 -1.88292e-05 0
-5.18985e-06 7.93658e-05 0
0.000416732 -0.000211325 0
-0.000169992 0.000323986 0
0.000201603 6.53306e-05 0
0.000511088 -1.88292e-05 0
0.000192613 -0.00036275 0
0.000416732 -0.000211325 0
5.92002e-05 -0.000965437 0
0.000192613 -0.00036275 0
0.000658065 -0.000550069 0
0.000416732 -0.000211325 0
-4.56041e-05 -0.000922525 0
5.92002e-05 -0.000965437 0
-0.000679975 -0.000522251 0
0.000658065 -0.000550069 0
-0.000211686 -0.000376169 0
-4.56041e-05 -0.000922525 0
-0.000428197 -0.000226735 0
-0.000679975 -0.000522251 0
-0.000214366 2.10767e-05 0
-0.000211686 -0.000376169 0
-0.000471292 -9.83353e-05 0
-0.000428197 -0.000226735 0
4.32174e-05 4.60631e-05 0
-0.000471292 -9.83353e-05 0
0.000113027 0.000359033 0
-0.000428197 -0.000226735 0
-0.00011251 -0.000369303 0
4.32174e-05 4.60631e-05 0
-5.82184e-05 -0.00051688 0
0.000113027 0.000359033 0
2.99899e-05 -0.000182255 0
-0.00011251 -0.000369303 0
2.53007e-05 -7.1941e-05 0
-5.82184e-05 -0.00051688 0
-4.72362e-05 -0.000674282 0
2.99899e-05 -0.000182255 0
-1.67869e-05 -0.000733929 0
2.53007e-05 -7.1941e-05 0
2.05532e-05 -0.000349627 0
-4.72362e-05 -0.000674282 0
9.57762e-06 -0.000309252 0
-1.67869e-05 -0.000733929 0
-2.28122e-05 -0.00083735 0
2.05532e-05 -0.000349627 0
-6.9616e-06 -0.000857519 0
9.57762e-06 -0.000309252 0
2.09124e-05 -0.000364566 0
-2.28122e-05 -0.00083735 0
5.7049e-06 -0.000347264 0
-6.9616e-06 -0.000857519 0
-1.49328e-05 -0.000675331 0
-7.87046e-06 -0.0017521 0
-1.48667e-05 -0.000675836 0
-5.21104e-06 -0.00175461 0
-1.3159e-05 -0.00067559 0
-8.47971e-06 -0.00174949 0
-1.49328e-05 -0.000675331 0
-7.87046e-06 -0.0017521 0
-1.2377e-05 -0.000675112 0
-6.35808e-06 -0.00174687 0
-1.3159e-05 -0.00067559 0
-8.47971e-06 -0.00174949 0
-1.16714e-05 -0.000673993 0
-5.63411e-06 -0.00174424 0
-1.2377e-05 -0.000675112 0
-6.35808e-06 -0.00174687 0
-1.10197e-05 -0.000673297 0
-4.05127e-06 -0.00174179 0
-1.16714e-05 -0.000673993 0
-5.63411e-06 -0.00174424 0
-1.02363e-05 -0.000671746 0
-2.85062e-06 -0.00173931 0
-1.10197e-05 -0.000673297 0
-4.05127e-06 -0.00174179 0
-8.21827e-06 -0.000670987 0
-1.20719e-06 -0.00173689 0
-1.02363e-05 -0.000671746 0
-2.85062e-06 -0.00173931 0
-6.39882e-06 -0.000669447 0
1.18499e-06 -0.00173523 0
-8.21827e-06 -0.000670987 0
-1.20719e-06 -0.00173689 0
-2.55935e-06 -0.000668202 0
2.78803e-06 -0.00173396 0
-6.39882e-06 -0.000669447 0
1.18499e-06 -0.00173523 0
1.44326e-06 -0.000667482 0
5.96425e-06 -0.00173387 0
-2.55935e-06 -0.000668202 0
2.78803e-06 -0.00173396 0
7.74939e-06 -0.000666394 0
9.50651e-06 -0.00173402 0
1.44326e-06 -0.000667482 0
5.96425e-06 -0.00173387 0
1.55647e-05 -0.000665711 0
9.6694e-06 -0.00173637 0
7.74939e-06 -0.000666394 0
9.50651e-06 -0.00173402 0
1.55647e-05 -0.000665711 0
2.07383e-05 -0.000666772 0
9.6694e-06 -0.00173637 0
1.07012e-05 -0.00173932 0
2.6372e-05 -0.000667237 0
9.44683e-06 -0.00174482 0
2.07383e-05 -0.000666772 0
1.07012e-05 -0.00173932 0
2.8564e-05 -0.000670439 0
7.43574e-06 -0.00174912 0
2.6372e-05 -0.000667237 0
9.44683e-06 -0.00174482 0
2.49361e-05 -0.000673617 0
1.06244e-05 -0.00175105 0
2.8564e-05 -0.000670439 0
7.43574e-06 -0.00174912 0
2.41321e-05 -0.000675026 0
1.31465e-05 -0.00175134 0
2.49361e-05 -0.000673617 0
1.06244e-05 -0.00175105 0
1.83803e-05 -0.000677522 0
1.3815e-05 -0.00175094 0
2.41321e-05 -0.000675026 0
1.31465e-05 -0.00175134 0
8.08481e-06 -0.000678192 0
1.29449e-05 -0.00174949 0
1.83803e-05 -0.000677522 0
1.3815e-05 -0.00175094 0
6.90712e-07 -0.000677245 0
9.83724e-06 -0.00174572 0
8.08481e-06 -0.000678192 0
1.29449e-05 -0.00174949 0
-2.74892e-06 -0.000675551 0
2.95117e-06 -0.00174338 0
6.90712e-07 -0.000677245 0
9.83724e-06 -0.00174572 0
-3.06638e-06 -0.00067599 0
-1.98324e-06 -0.0017396 0
-2.74892e-06 -0.000675551 0
2.95117e-06 -0.00174338 0
-6.1692e-06 -0.000675847 0
-2.96365e-06 -0.00174022 0
-3.06638e-06 -0.00067599 0
-1.98324e-06 -0.0017396 0
-5.80423e-06 -0.000675431 0
-5.14158e-06 -0.00173902 0
-6.1692e-06 -0.000675847 0
-2.96365e-06 -0.00174022 0
-2.94168e-06 -0.000676348 0
-6.81438e-06 -0.00173622 0
-5.80423e-06 -0.000675431 0
-5.14158e-06 -0.00173902 0
-6.54887e-06 -0.000679258 0
-8.49437e-06 -0.00173216 0
-2.94168e-06 -0.000676348 0
-6.81438e-06 -0.00173622 0
-1.421e-05 -0.000682336 0
-7.32992e-06 -0.0017263 0
-6.54887e-06 -0.000679258 0
-8.49437e-06 -0.00173216 0
-1.86848e-05 -0.000680419 0
-5.47368e-06 -0.00172439 0
-1.421e-05 -0.000682336 0
-7.32992e-06 -0.0017263 0
-1.93912e-05 -0.000677514 0
-6.53695e-06 -0.00172376 0
-1.86848e-05 -0.000680419 0
-5.47368e-06 -0.00172439 0
-1.89487e-05 -0.000674162 0
-5.9693e-06 -0.00172459 0
-1.93912e-05 -0.000677514 0
-6.53695e-06 -0.00172376 0
-1.65282e-05 -0.000669897 0
-3.71135e-06 -0.00172646 0
-1.89487e-05 -0.000674162 0
-5.9693e-06 -0.00172459 0
-1.13477e-05 -0.000665951 0
-2.82954e-06 -0.00172858 0
-1.65282e-05 -0.000669897 0
-3.71135e-06 -0.00172646 0
-3.52196e-06 -0.000665015 0
-7.15774e-07 -0.00172715 0
-1.13477e-05 -0.000665951 0
-2.82954e-06 -0.00172858 0
3.46066e-06 -0.000665234 0
5.59742e-06 -0.00172737 0
-3.52196e-06 -0.000665015 0
-7.15774e-07 -0.00172715 0
1.53363e-05 -0.0006651 0
1.36985e-05 -0.00172623 0
3.46066e-06 -0.000665234 0
5.59742e-06 -0.00172737 0
2.7337e-05 -0.000666152 0
1.40545e-05 -0.00172702 0
1.53363e-05 -0.0006651 0
1.36985e-05 -0.00172623 0
2.95147e-05 -0.000669675 0
1.2372e-05 -0.00172553 0
2.7337e-05 -0.000666152 0
1.40545e-05 -0.00172702 0
2.21232e-05 -0.000673912 0
4.46916e-06 -0.00172209 0
2.95147e-05 -0.000669675 0
1.2372e-05 -0.00172553 0
1.40225e-05 -0.000679771 0
-6.08338e-06 -0.00171686 0
2.21232e-05 -0.000673912 0
4.46916e-06 -0.00172209 0
1.40225e-05 -0.000679771 0
-9.17327e-06 -0.000685663 0
-6.08338e-06 -0.00171686 0
-2.0098e-05 -0.00171043 0
-2.69705e-05 -0.000684872 0
-1.83674e-05 -0.00171587 0
-9.17327e-06 -0.000685663 0
-2.0098e-05 -0.00171043 0
-5.05028e-05 -0.000679758 0
-2.31688e-05 -0.00172292 0
-2.69705e-05 -0.000684872 0
-1.83674e-05 -0.00171587 0
-4.12523e-05 -0.000672036 0
-7.12038e-06 -0.00172631 0
-5.05028e-05 -0.000679758 0
-2.31688e-05 -0.00172292 0
-4.86992e-05 -0.000664451 0
-1.80246e-05 -0.00173344 0
-4.12523e-05 -0.000672036 0
-7.12038e-06 -0.00172631 0
-1.00687e-06 -0.000657796 0
2.53699e-05 -0.00173882 0
-4.86992e-05 -0.000664451 0
-1.80246e-05 -0.00173344 0
-1.00687e-06 -0.000657796 0
-1.25453e-05 -0.000649272 0
2.53699e-05 -0.00173882 0
-5.8227e-06 -0.00174684 0
-1.25453e-05 -0.000649272 0
6.46138e-05 -0.000651851 0
-5.8227e-06 -0.00174684 0
5.01154e-05 -0.00173935 0
-3.85267e-05 -0.000653897 0
-7.08369e-05 -0.00174128 0
6.46138e-05 -0.000651851 0
5.01154e-05 -0.00173935 0
-2.00685e-05 -0.000660856 0
-3.97059e-05 -0.00171952 0
-3.85267e-05 -0.000653897 0
-7.08369e-05 -0.00174128 0
-0.00045904 -0.000649248 0
-0.000467994 -0.00170927 0
-2.00685e-05 -0.000660856 0
-3.97059e-05 -0.00171952 0
-0.000766965 -0.000656754 0
-0.000761689 -0.00160064 0
-0.00045904 -0.000649248 0
-0.000467994 -0.00170927 0
-0.00232934 -0.000649212 0
-0.00229879 -0.00136584 0
-0.000766965 -0.000656754 0
-0.000761689 -0.00160064 0
-0.00432431 -0.000673576 0
-0.00412499 -0.000722756 0
-0.00232934 -0.000649212 0
-0.00229879 -0.00136584 0
-0.00993134 -0.000561693 0
-0.00953822 0.000315631 0
-0.00432431 -0.000673576 0
-0.00412499 -0.000722756 0
-0.0180079 -0.000624466 0
-0.017621 0.00352723 0
-0.00993134 -0.000561693 0
-0.00953822 0.000315631 0
-0.031803 -0.00105855 0
-0.0371923 0.00169913 0
-0.0180079 -0.000624466 0
-0.017621 0.00352723 0
-0.0361335 -0.00209762 0
-0.044157 -0.0196419 0
-0.031803 -0.00105855 0
-0.0371923 0.00169913 0
-0.0361335 -0.00209762 0
-0.0327787 -0.00139277 0
-0.044157 -0.0196419 0
-0.0285603 -0.038495 0
1.70821e-05 -0.000377458 0
-1.88698e-05 -0.000835932 0
2.09124e-05 -0.000364566 0
-2.28122e-05 -0.00083735 0
1.70821e-05 -0.000377458 0
8.367e-06 -0.000392746 0
-1.88698e-05 -0.000835932 0
-1.04501e-05 -0.000827659 0
4.13394e-06 -0.000394438 0
-4.76405e-06 -0.000831744 0
8.367e-06 -0.000392746 0
-1.04501e-05 -0.000827659 0
4.13394e-06 -0.000394438 0
8.5776e-06 -0.000400554 0
-4.76405e-06 -0.000831744 0
-4.2666e-06 -0.000828745 0
8.5776e-06 -0.000400554 0
1.08362e-05 -0.000400982 0
-4.2666e-06 -0.000828745 0
4.12884e-07 -0.000833703 0
1.08362e-05 -0.000400982 0
1.27287e-05 -0.000403848 0
4.12884e-07 -0.000833703 0
2.97341e-06 -0.000834816 0
1.27287e-05 -0.000403848 0
1.4104e-05 -0.000402811 0
2.97341e-06 -0.000834816 0
3.50221e-06 -0.000840467 0
1.4104e-05 -0.000402811 0
1.50201e-05 -0.00040546 0
3.50221e-06 -0.000840467 0
1.05681e-06 -0.000843255 0
1.50201e-05 -0.00040546 0
1.26161e-05 -0.000406971 0
1.05681e-06 -0.000843255 0
1.85428e-06 -0.000847006 0
1.26161e-05 -0.000406971 0
1.01535e-05 -0.000409001 0
1.85428e-06 -0.000847006 0
2.05409e-06 -0.000849114 0
1.01535e-05 -0.000409001 0
8.00959e-06 -0.000409792 0
2.05409e-06 -0.000849114 0
2.6431e-06 -0.000851233 0
8.00959e-06 -0.000409792 0
6.38062e-06 -0.000410873 0
2.6431e-06 -0.000851233 0
2.86204e-06 -0.000852148 0
6.38062e-06 -0.000410873 0
5.17179e-06 -0.000411035 0
2.86204e-06 -0.000852148 0
3.64579e-06 -0.000853115 0
5.17179e-06 -0.000411035 0
4.50277e-06 -0.000411255 0
3.64579e-06 -0.000853115 0
3.64716e-06 -0.000853584 0
4.50277e-06 -0.000411255 0
4.67605e-06 -0.000411264 0
3.64716e-06 -0.000853584 0
3.60701e-06 -0.000854255 0
4.67605e-06 -0.000411264 0
6.42413e-06 -0.000411356 0
3.60701e-06 -0.000854255 0
2.46147e-06 -0.000855436 0
6.42413e-06 -0.000411356 0
6.79446e-06 -0.000412017 0
2.46147e-06 -0.000855436 0
1.4168e-06 -0.000856653 0
6.79446e-06 -0.000412017 0
6.72222e-06 -0.000412817 0
1.4168e-06 -0.000856653 0
2.02956e-06 -0.000858259 0
6.72222e-06 -0.000412817 0
6.51874e-06 -0.000413681 0
2.02956e-06 -0.000858259 0
2.55476e-06 -0.000859869 0
6.51874e-06 -0.000413681 0
5.24731e-06 -0.000414319 0
2.55476e-06 -0.000859869 0
2.75922e-06 -0.000861162 0
5.24731e-06 -0.000414319 0
4.44994e-06 -0.000414535 0
2.75922e-06 -0.000861162 0
2.5176e-06 -0.000862494 0
4.44994e-06 -0.000414535 0
3.93442e-06 -0.000414892 0
2.5176e-06 -0.000862494 0
2.32381e-06 -0.000862994 0
3.93442e-06 -0.000414892 0
3.48973e-06 -0.000414835 0
2.32381e-06 -0.000862994 0
2.17787e-06 -0.000863193 0
3.48973e-06 -0.000414835 0
3.12632e-06 -0.000414719 0
2.17787e-06 -0.000863193 0
1.50027e-06 -0.000863258 0
0.0490438 -0.0493208 0
0.0345355 -0.0343633 0
0.0518614 -0.048224 0
0.0369011 -0.0300737 0
0.0201309 -0.0201215 0
0.0224574 -0.0158084 0
0.0345355 -0.0343633 0
0.0369011 -0.0300737 0
0.0201309 -0.0201215 0
0.0112203 -0.0115778 0
0.0224574 -0.0158084 0
0.011496 -0.00957551 0
0.0112203 -0.0115778 0
0.00575633 -0.00618471 0
0.011496 -0.00957551 0
0.00596062 -0.00544729 0
0.00287644 -0.00339601 0
0.00252854 -0.00320461 0
0.00575633 -0.00618471 0
0.00596062 -0.00544729 0
0.00131452 -0.00184362 0
0.00101848 -0.00193587 0
0.00287644 -0.00339601 0
0.00252854 -0.00320461 0
0.00131452 -0.00184362 0
0.00050591 -0.0010479 0
0.00101848 -0.00193587 0
6.85532e-05 -0.00125621 0
0.00050591 -0.0010479 0
0.000140235 -0.000675589 0
6.85532e-05 -0.00125621 0
-0.00026599 -0.000938556 0
-6.21019e-05 -0.000470134 0
-0.000504581 -0.000738146 0
0.000140235 -0.000675589 0
-0.00026599 -0.000938556 0
-6.21019e-05 -0.000470134 0
-0.00012504 -0.000408356 0
-0.000504581 -0.000738146 0
-0.000542801 -0.000675347 0
-0.00012504 -0.000408356 0
-0.000177144 -0.000347557 0
-0.000542801 -0.000675347 0
-0.000592414 -0.000620341 0
-0.000177144 -0.000347557 0
-0.000175919 -0.000343227 0
-0.000592414 -0.000620341 0
-0.000581674 -0.000610952 0
-0.000175919 -0.000343227 0
-0.000190793 -0.000319751 0
-0.000581674 -0.000610952 0
-0.000588408 -0.000587233 0
-0.000183876 -0.000319769 0
-0.000574845 -0.000576066 0
-0.000190793 -0.000319751 0
-0.000588408 -0.000587233 0
-0.000191708 -0.000310883 0
-0.000570112 -0.000554565 0
-0.000183876 -0.000319769 0
-0.000574845 -0.000576066 0
-0.000191708 -0.000310883 0
-0.00019286 -0.000306686 0
-0.000570112 -0.000554565 0
-0.000558706 -0.000541265 0
-0.00019286 -0.000306686 0
-0.000195016 -0.000302114 0
-0.000558706 -0.000541265 0
-0.00054975 -0.000527646 0
-0.000195016 -0.000302114 0
-0.000194642 -0.000297222 0
-0.00054975 -0.000527646 0
-0.000540748 -0.000520206 0
-0.000194642 -0.000297222 0
-0.000188153 -0.000297011 0
-0.000540748 -0.000520206 0
-0.000533045 -0.00051571 0
-0.000188153 -0.000297011 0
-0.000185616 -0.000294497 0
-0.000533045 -0.00051571 0
-0.000524442 -0.000510549 0
-0.000185616 -0.000294497 0
-0.000172791 -0.000300736 0
-0.000524442 -0.000510549 0
-0.000512408 -0.000507866 0
-0.000172791 -0.000300736 0
-0.000173546 -0.000298656 0
-0.000512408 -0.000507866 0
-0.000505772 -0.000508804 0
-0.00015949 -0.000298418 0
-0.000492545 -0.000521751 0
-0.000173546 -0.000298656 0
-0.000505772 -0.000508804 0
-0.0001578 -0.000290683 0
-0.000510008 -0.00051595 0
-0.00015949 -0.000298418 0
-0.000492545 -0.000521751 0
-0.0001578 -0.000290683 0
-0.000147049 -0.000302565 0
-0.000510008 -0.00051595 0
-0.000502023 -0.000508887 0
-0.000164008 -0.000299239 0
-0.000515912 -0.00048052 0
-0.000147049 -0.000302565 0
-0.000502023 -0.000508887 0
-0.000159053 -0.000333196 0
-0.000460298 -0.000478237 0
-0.000164008 -0.000299239 0
-0.000515912 -0.00048052 0
-0.000159053 -0.000333196 0
-0.000193556 -0.000299139 0
-0.000460298 -0.000478237 0
-0.000458353 -0.000487844 0
-0.000131433 -0.000343455 0
-0.00041615 -0.000545802 0
-0.000193556 -0.000299139 0
-0.000458353 -0.000487844 0
-0.000131433 -0.000343455 0
-0.000107714 -0.000366709 0
-0.00041615 -0.000545802 0
-0.000454962 -0.000559716 0
-0.000107714 -0.000366709 0
1.59094e-05 -0.00051384 0
-0.000454962 -0.000559716 0
-0.000317978 -0.000698096 0
1.59094e-05 -0.00051384 0
1.74597e-05 -0.000520452 0
-0.000317978 -0.000698096 0
-0.000304478 -0.000666008 0
1.74597e-05 -0.000520452 0
-3.98579e-06 -0.00047917 0
-0.000304478 -0.000666008 0
1.25973e-05 -0.000946321 0
-3.98579e-06 -0.00047917 0
2.05499e-05 -0.000335176 0
1.25973e-05 -0.000946321 0
-0.000137447 -0.000496809 0
2.05499e-05 -0.000335176 0
3.26656e-05 -0.00041361 0
-0.000137447 -0.000496809 0
-0.000182686 -0.000866274 0
3.26656e-05 -0.00041361 0
0.00011491 -0.000286089 0
-0.000182686 -0.000866274 0
8.39336e-06 -0.000753796 0
0.00011491 -0.000286089 0
6.85564e-05 -0.000371092 0
8.39336e-06 -0.000753796 0
-0.000303122 -0.000850456 0
6.85564e-05 -0.000371092 0
-7.05762e-06 -0.000438701 0
-0.000303122 -0.000850456 0
-1.62231e-05 -0.000808115 0
-7.05762e-06 -0.000438701 0
-0.000175638 -0.000387342 0
-1.62231e-05 -0.000808115 0
-7.25556e-05 -0.000955389 0
2.17787e-06 -0.000863193 0
1.50027e-06 -0.000863258 0
1.33507e-06 -0.000449758 0
6.29452e-07 -0.000451116 0
1.33507e-06 -0.000449758 0
6.29452e-07 -0.000451116 0
4.99824e-07 -0.000717331 0
-5.76628e-08 -0.00071722 0
4.99824e-07 -0.000717331 0
-5.76628e-08 -0.00071722 0
-6.93359e-07 -0.000315405 0
-4.69356e-08 -0.000315394 0
-6.93359e-07 -0.000315405 0
-4.69356e-08 -0.000315394 0
-1.51996e-07 -0.000451138 0
-8.08339e-07 -0.000451423 0
-1.51996e-07 -0.000451138 0
-8.08339e-07 -0.000451423 0
-1.52446e-06 -0.000131985 0
-1.00025e-06 -0.000131729 0
-1.52446e-06 -0.000131985 0
-1.00025e-06 -0.000131729 0
-7.39862e-07 -0.00023138 0
-1.04015e-06 -0.000231747 0
-2.08608e-06 -2.34841e-05 0
-7.39862e-07 -0.00023138 0
-1.84896e-06 -2.3609e-05 0
-1.04015e-06 -0.000231747 0
-2.08608e-06 -2.34841e-05 0
-1.84896e-06 -2.3609e-05 0
-1.81895e-06 -0.000109203 0
-1.56934e-06 -0.000109459 0
-1.81895e-06 -0.000109203 0
-1.56934e-06 -0.000109459 0
-2.7928e-06 1.36686e-05 0
-2.46548e-06 1.32866e-05 0
-2.7928e-06 1.36686e-05 0
-2.46548e-06 1.32866e-05 0
-3.03454e-06 -5.28786e-05 0
-2.32451e-06 -5.32053e-05 0
-3.03454e-06 -5.28786e-05 0
-2.32451e-06 -5.32053e-05 0
-4.06928e-06 1.60088e-05 0
-3.28186e-06 1.50908e-05 0
-4.06928e-06 1.60088e-05 0
-3.28186e-06 1.50908e-05 0
-5.16564e-06 -2.86577e-05 0
-4.85705e-06 -3.03182e-05 0
-5.16564e-06 -2.86577e-05 0
-4.85705e-06 -3.03182e-05 0
-7.25097e-06 6.51495e-06 0
-8.23209e-06 3.85428e-06 0
-7.25097e-06 6.51495e-06 0
-8.23209e-06 3.85428e-06 0
-9.87243e-06 -1.80209e-05 0
-1.33533e-05 -2.24097e-05 0
-9.87243e-06 -1.80209e-05 0
-1.33533e-05 -2.24097e-05 0
-1.3526e-05 -4.79866e-06 0
-2.20646e-05 -1.04186e-05 0
-1.3526e-05 -4.79866e-06 0
-2.20646e-05 -1.04186e-05 0
-1.70939e-05 -9.48243e-06 0
-3.15752e-05 -1.56425e-05 0
-1.70939e-05 -9.48243e-06 0
-3.15752e-05 -1.56425e-05 0
-1.99249e-05 -1.163e-05 0
-4.19308e-05 -1.60905e-05 0
-1.99249e-05 -1.163e-05 0
-4.19308e-05 -1.60905e-05 0
-1.99945e-05 6.12306e-06 0
-4.58226e-05 6.14159e-06 0
-1.99945e-05 6.12306e-06 0
-4.58226e-05 6.14159e-06 0
-1.73604e-05 -1.55963e-05 0
-4.17424e-05 -1.08509e-05 0
-1.73604e-05 -1.55963e-05 0
-4.17424e-05 -1.08509e-05 0
-1.21455e-05 2.52802e-05 0
-3.0435e-05 3.2147e-05 0
-1.21455e-05 2.52802e-05 0
-3.0435e-05 3.2147e-05 0
-7.03699e-06 -3.31802e-05 0
-1.88264e-05 -2.64473e-05 0
-7.03699e-06 -3.31802e-05 0
-1.88264e-05 -2.64473e-05 0
-1.98162e-06 3.88323e-05 0
-8.56674e-06 4.34306e-05 0
-1.98162e-06 3.88323e-05 0
-8.56674e-06 4.34306e-05 0
6.93047e-08 -8.27037e-05 0
-2.99648e-06 -7.92992e-05 0
6.93047e-08 -8.27037e-05 0
-2.99648e-06 -7.92992e-05 0
3.26693e-06 3.65214e-05 0
2.07967e-06 3.62905e-05 0
3.26693e-06 3.65214e-05 0
2.07967e-06 3.62905e-05 0
-3.68797e-07 -0.00020167 0
-1.93284e-06 -0.000200955 0
-3.68797e-07 -0.00020167 0
-1.93284e-06 -0.000200955 0
3.49301e-06 -3.55462e-05 0
3.28477e-06 -3.46662e-05 0
3.49301e-06 -3.55462e-05 0
3.28477e-06 -3.46662e-05 0
-4.49058e-08 -0.000513743 0
-1.24421e-06 -0.000511801 0
-4.49058e-08 -0.000513743 0
-1.24421e-06 -0.000511801 0
5.66259e-06 -0.000305249 0
6.42639e-06 -0.000304515 0
5.66259e-06 -0.000305249 0
6.42639e-06 -0.000304515 0
-3.43123e-06 -0.00113654 0
-2.46752e-06 -0.00113785 0
-3.43123e-06 -0.00113654 0
-2.46752e-06 -0.00113785 0
-3.11636e-06 -0.000719494 0
-2.17284e-06 -0.000720633 0
-3.11636e-06 -0.000719494 0
-2.17284e-06 -0.000720633 0
-7.87046e-06 -0.0017521 0
-5.21104e-06 -0.00175461 0
0.0224574 -0.0158084 0
0.02291 -0.00796183 0
0.0369011 -0.0300737 0
0.0421328 -0.0106226 0
0.0224574 -0.0158084 0
0.011496 -0.00957551 0
0.02291 -0.00796183 0
0.0113886 -0.00487034 0
0.011496 -0.00957551 0
0.00596062 -0.00544729 0
0.0113886 -0.00487034 0
0.00616877 -0.00341086 0
0.00252854 -0.00320461 0
0.0027654 -0.0018143 0
0.00596062 -0.00544729 0
0.00616877 -0.00341086 0
0.00101848 -0.00193587 0
0.00133748 -0.00125417 0
0.00252854 -0.00320461 0
0.0027654 -0.0018143 0
0.00101848 -0.00193587 0
6.85532e-05 -0.00125621 0
0.00133748 -0.00125417 0
0.000376539 -0.000648802 0
6.85532e-05 -0.00125621 0
-0.00026599 -0.000938556 0
0.000376539 -0.000648802 0
5.78483e-05 -0.000526917 0
-0.000504581 -0.000738146 0
-0.000177311 -0.000339863 0
-0.00026599 -0.000938556 0
5.78483e-05 -0.000526917 0
-0.000504581 -0.000738146 0
-0.000542801 -0.000675347 0
-0.000177311 -0.000339863 0
-0.000234076 -0.000339208 0
-0.000542801 -0.000675347 0
-0.000592414 -0.000620341 0
-0.000234076 -0.000339208 0
-0.000283028 -0.000272546 0
-0.000592414 -0.000620341 0
-0.000581674 -0.000610952 0
-0.000283028 -0.000272546 0
-0.000274798 -0.000281321 0
-0.000581674 -0.000610952 0
-0.000588408 -0.000587233 0
-0.000274798 -0.000281321 0
-0.00028099 -0.000253944 0
-0.000574845 -0.000576066 0
-0.000270959 -0.000256218 0
-0.000588408 -0.000587233 0