# vtk DataFile Version 3.0
#This file was generated by the deal.II library on 2016/12/20 at 10:56:52
ASCII
DATASET UNSTRUCTURED_GRID

POINTS 7324 double
-1 0.5 0
-0.978723 0.478723 0
-0.970149 0.5 0
-0.964976 0.485465 0
0.12 -0.5 0
0.15 -0.5 0
0.119014 -0.4708 0
0.15 -0.471429 0
0.11755 -0.441479 0
0.119014 -0.4708 0
0.15 -0.442857 0
0.15 -0.471429 0
0.117242 -0.412206 0
0.11755 -0.441479 0
0.15 -0.414286 0
0.15 -0.442857 0
0.118129 -0.383064 0
0.117242 -0.412206 0
0.15 -0.385714 0
0.15 -0.414286 0
0.12021 -0.354337 0
0.118129 -0.383064 0
0.15 -0.357143 0
0.15 -0.385714 0
0.121793 -0.32584 0
0.12021 -0.354337 0
0.15 -0.328571 0
0.15 -0.357143 0
0.122717 -0.296869 0
0.121793 -0.32584 0
0.15 -0.3 0
0.15 -0.328571 0
0.123759 -0.266752 0
0.122717 -0.296869 0
0.153091 -0.267708 0
0.15 -0.3 0
0.18456 -0.26795 0
0.153091 -0.267708 0
0.183333 -0.3 0
0.15 -0.3 0
0.216606 -0.268111 0
0.18456 -0.26795 0
0.216667 -0.3 0
0.183333 -0.3 0
0.24835 -0.26841 0
0.216606 -0.268111 0
0.25 -0.3 0
0.216667 -0.3 0
0.278782 -0.268564 0
0.24835 -0.26841 0
0.279437 -0.298917 0
0.25 -0.3 0
0.279638 -0.328111 0
0.279437 -0.298917 0
0.25 -0.328571 0
0.25 -0.3 0
0.27971 -0.356801 0
0.279638 -0.328111 0
0.25 -0.357143 0
0.25 -0.328571 0
0.279677 -0.385395 0
0.27971 -0.356801 0
0.25 -0.385714 0
0.25 -0.357143 0
0.279641 -0.413938 0
0.279677 -0.385395 0
0.25 -0.414286 0
0.25 -0.385714 0
0.279666 -0.442534 0
0.279641 -0.413938 0
0.25 -0.442857 0
0.25 -0.414286 0
0.279811 -0.471266 0
0.279666 -0.442534 0
0.25 -0.471429 0
0.25 -0.442857 0
0.28 -0.5 0
0.279811 -0.471266 0
0.25 -0.5 0
0.25 -0.471429 0
0.970149 0.5 0
0.970096 0.46978 0
1 0.5 0
1 0.469697 0
0.940299 0.5 0
0.940231 0.46984 0
0.970149 0.5 0
0.970096 0.46978 0
0.910448 0.5 0
0.910371 0.469856 0
0.940299 0.5 0
0.940231 0.46984 0
0.880597 0.5 0
0.880527 0.469909 0
0.910448 0.5 0
0.910371 0.469856 0
0.850746 0.5 0
0.850684 0.469926 0
0.880597 0.5 0
0.880527 0.469909 0
0.820896 0.5 0
0.820842 0.469978 0
0.850746 0.5 0
0.850684 0.469926 0
0.791045 0.5 0
0.791001 0.470016 0
0.820896 0.5 0
0.820842 0.469978 0
0.761194 0.5 0
0.761159 0.470055 0
0.791045 0.5 0
0.791001 0.470016 0
0.731343 0.5 0
0.731316 0.470091 0
0.761194 0.5 0
0.761159 0.470055 0
0.701493 0.5 0
0.701472 0.470118 0
0.731343 0.5 0
0.731316 0.470091 0
0.671642 0.5 0
0.671627 0.470134 0
0.701493 0.5 0
0.701472 0.470118 0
0.641791 0.5 0
0.64178 0.470142 0
0.671642 0.5 0
0.671627 0.470134 0
0.641791 0.5 0
0.61194 0.5 0
0.64178 0.470142 0
0.611934 0.470065 0
0.58209 0.5 0
0.582089 0.470002 0
0.61194 0.5 0
0.611934 0.470065 0
0.552239 0.5 0
0.552248 0.469853 0
0.58209 0.5 0
0.582089 0.470002 0
0.522388 0.5 0
0.522413 0.469718 0
0.552239 0.5 0
0.552248 0.469853 0
0.492537 0.5 0
0.492577 0.469656 0
0.522388 0.5 0
0.522413 0.469718 0
0.462687 0.5 0
0.462743 0.469571 0
0.492537 0.5 0
0.492577 0.469656 0
0.432836 0.5 0
0.432895 0.46963 0
0.462687 0.5 0
0.462743 0.469571 0
0.402985 0.5 0
0.403046 0.469669 0
0.432836 0.5 0
0.432895 0.46963 0
0.373134 0.5 0
0.373191 0.469745 0
0.402985 0.5 0
0.403046 0.469669 0
0.343284 0.5 0
0.343335 0.469723 0
0.373134 0.5 0
0.373191 0.469745 0
0.313433 0.5 0
0.313478 0.469741 0
0.343284 0.5 0
0.343335 0.469723 0
0.283582 0.5 0
0.283622 0.469783 0
0.313433 0.5 0
0.313478 0.469741 0
0.253731 0.5 0
0.253768 0.469742 0
0.283582 0.5 0
0.283622 0.469783 0
0.223881 0.5 0
0.223918 0.469737 0
0.253731 0.5 0
0.253768 0.469742 0
0.19403 0.5 0
0.194064 0.46981 0
0.223881 0.5 0
0.223918 0.469737 0
0.164179 0.5 0
0.16421 0.469881 0
0.19403 0.5 0
0.194064 0.46981 0
0.134328 0.5 0
0.134355 0.46994 0
0.164179 0.5 0
0.16421 0.469881 0
0.104478 0.5 0
0.1045 0.469997 0
0.134328 0.5 0
0.134355 0.46994 0
0.074627 0.5 0
0.074645 0.470051 0
0.104478 0.5 0
0.1045 0.469997 0
0.044776 0.5 0
0.04479 0.470093 0
0.074627 0.5 0
0.074645 0.470051 0
0.014925 0.5 0
0.014935 0.47012 0
0.044776 0.5 0
0.04479 0.470093 0
-0.014925 0.5 0
-0.014918 0.470135 0
0.014925 0.5 0
0.014935 0.47012 0
-0.044776 0.5 0
-0.044771 0.470143 0
-0.014925 0.5 0
-0.014918 0.470135 0
-0.074627 0.5 0
-0.074623 0.470146 0
-0.044776 0.5 0
-0.044771 0.470143 0
-0.104478 0.5 0
-0.104496 0.469979 0
-0.074627 0.5 0
-0.074623 0.470146 0
-0.134328 0.5 0
-0.134359 0.469935 0
-0.104478 0.5 0
-0.104496 0.469979 0
-0.164179 0.5 0
-0.164225 0.469839 0
-0.134328 0.5 0
-0.134359 0.469935 0
-0.164179 0.5 0
-0.19403 0.5 0
-0.164225 0.469839 0
-0.194083 0.469797 0
-0.223881 0.5 0
-0.22394 0.469753 0
-0.19403 0.5 0
-0.194083 0.469797 0
-0.253731 0.5 0
-0.253798 0.469819 0
-0.223881 0.5 0
-0.22394 0.469753 0
-0.283582 0.5 0
-0.283647 0.470019 0
-0.253731 0.5 0
-0.253798 0.469819 0
-0.313433 0.5 0
-0.313491 0.470151 0
-0.283582 0.5 0
-0.283647 0.470019 0
-0.343284 0.5 0
-0.343348 0.470381 0
-0.313433 0.5 0
-0.313491 0.470151 0
-0.343284 0.5 0
-0.373134 0.5 0
-0.343348 0.470381 0
-0.373195 0.470395 0
-0.373134 0.5 0
-0.402985 0.5 0
-0.373195 0.470395 0
-0.403049 0.470404 0
-0.432836 0.5 0
-0.432937 0.470297 0
-0.402985 0.5 0
-0.403049 0.470404 0
-0.462687 0.5 0
-0.462848 0.469995 0
-0.432836 0.5 0
-0.432937 0.470297 0
-0.492537 0.5 0
-0.492807 0.469765 0
-0.462687 0.5 0
-0.462848 0.469995 0
-0.522388 0.5 0
-0.52276 0.46958 0
-0.492537 0.5 0
-0.492807 0.469765 0
-0.552239 0.5 0
-0.55273 0.469652 0
-0.522388 0.5 0
-0.52276 0.46958 0
-0.58209 0.5 0
-0.582662 0.469731 0
-0.552239 0.5 0
-0.55273 0.469652 0
-0.61194 0.5 0
-0.612594 0.469999 0
-0.58209 0.5 0
-0.582662 0.469731 0
-0.641791 0.5 0
-0.642647 0.470419 0
-0.61194 0.5 0
-0.612594 0.469999 0
-0.671642 0.5 0
-0.672638 0.470543 0
-0.641791 0.5 0
-0.642647 0.470419 0
-0.701493 0.5 0
-0.702968 0.4698 0
-0.671642 0.5 0
-0.672638 0.470543 0
-0.820896 0.5 0
-0.822797 0.47207 0
-0.791045 0.5 0
-0.795702 0.469563 0
0.31 -0.5 0
0.309694 -0.471123 0
0.28 -0.5 0
0.279811 -0.471266 0
0.31 -0.5 0
0.34 -0.5 0
0.309694 -0.471123 0
0.339686 -0.471033 0
0.37 -0.5 0
0.369721 -0.471055 0
0.34 -0.5 0
0.339686 -0.471033 0
0.37 -0.5 0
0.4 -0.5 0
0.369721 -0.471055 0
0.399756 -0.470957 0
0.4 -0.5 0
0.43 -0.5 0
0.399756 -0.470957 0
0.429805 -0.470822 0
0.43 -0.5 0
0.46 -0.5 0
0.429805 -0.470822 0
0.459835 -0.470712 0
0.46 -0.5 0
0.49 -0.5 0
0.459835 -0.470712 0
0.489873 -0.470554 0
0.49 -0.5 0
0.52 -0.5 0
0.489873 -0.470554 0
0.519906 -0.470379 0
0.52 -0.5 0
0.55 -0.5 0
0.519906 -0.470379 0
0.54993 -0.470248 0
0.55 -0.5 0
0.58 -0.5 0
0.54993 -0.470248 0
0.579948 -0.470155 0
0.58 -0.5 0
0.61 -0.5 0
0.579948 -0.470155 0
0.609962 -0.470091 0
0.61 -0.5 0
0.64 -0.5 0
0.609962 -0.470091 0
0.639972 -0.47005 0
0.64 -0.5 0
0.67 -0.5 0
0.639972 -0.47005 0
0.66998 -0.470026 0
0.67 -0.5 0
0.7 -0.5 0
0.66998 -0.470026 0
0.699986 -0.470013 0
0.7 -0.5 0
0.73 -0.5 0
0.699986 -0.470013 0
0.72999 -0.470006 0
0.73 -0.5 0
0.76 -0.5 0
0.72999 -0.470006 0
0.759994 -0.470003 0
0.76 -0.5 0
0.79 -0.5 0
0.759994 -0.470003 0
0.78998 -0.469916 0
0.79 -0.5 0
0.82 -0.5 0
0.78998 -0.469916 0
0.819956 -0.469877 0
0.82 -0.5 0
0.85 -0.5 0
0.819956 -0.469877 0
0.849929 -0.469833 0
0.85 -0.5 0
0.88 -0.5 0
0.849929 -0.469833 0
0.879924 -0.469805 0
0.88 -0.5 0
0.91 -0.5 0
0.879924 -0.469805 0
0.909913 -0.469792 0
0.91 -0.5 0
0.94 -0.5 0
0.909913 -0.469792 0
0.939922 -0.469775 0
0.94 -0.5 0
0.97 -0.5 0
0.939922 -0.469775 0
0.969956 -0.46974 0
0.97 -0.5 0
1 -0.5 0
0.969956 -0.46974 0
1 -0.469697 0
-0.638298 0.138298 0
-0.616915 0.16063 0
-0.659574 0.159574 0
-0.638233 0.18203 0
-0.617021 0.117021 0
-0.595665 0.139192 0
-0.638298 0.138298 0
-0.616915 0.16063 0
-0.617021 0.117021 0
-0.595745 0.095745 0
-0.595665 0.139192 0
-0.574431 0.117764 0
-0.595745 0.095745 0
-0.574468 0.074468 0
-0.574431 0.117764 0
-0.553204 0.096309 0
-0.553191 0.053191 0
-0.53184 0.075023 0
-0.574468 0.074468 0
-0.553204 0.096309 0
-0.553191 0.053191 0
-0.531915 0.031915 0
-0.53184 0.075023 0
-0.510492 0.053733 0
-0.531915 0.031915 0
-0.510638 0.010638 0
-0.510492 0.053733 0
-0.489127 0.032461 0
-0.510638 0.010638 0
-0.489362 -0.010638 0
-0.489127 0.032461 0
-0.467791 0.011178 0
-0.489362 -0.010638 0
-0.468085 -0.031915 0
-0.467791 0.011178 0
-0.446536 -0.010172 0
-0.446809 -0.053191 0
-0.42524 -0.031466 0
-0.468085 -0.031915 0
-0.446536 -0.010172 0
-0.425532 -0.074468 0
-0.404012 -0.052824 0
-0.446809 -0.053191 0
-0.42524 -0.031466 0
-0.425532 -0.074468 0
-0.404255 -0.095745 0
-0.404012 -0.052824 0
-0.382783 -0.074175 0
-0.404255 -0.095745 0
-0.382979 -0.117021 0
-0.382783 -0.074175 0
-0.361545 -0.095511 0
-0.382979 -0.117021 0
-0.361702 -0.138298 0
-0.361545 -0.095511 0
-0.340288 -0.116831 0
-0.361702 -0.138298 0
-0.340426 -0.159574 0
-0.340288 -0.116831 0
-0.319034 -0.138159 0
-0.340426 -0.159574 0
-0.319149 -0.180851 0
-0.319034 -0.138159 0
-0.297766 -0.159484 0
-0.319149 -0.180851 0
-0.297872 -0.202128 0
-0.297766 -0.159484 0
-0.276489 -0.180797 0
-0.297872 -0.202128 0
-0.276596 -0.223404 0
-0.276489 -0.180797 0
-0.255087 -0.202105 0
-0.255319 -0.244681 0
-0.233674 -0.223466 0
-0.276596 -0.223404 0
-0.255087 -0.202105 0
-0.234043 -0.265957 0
-0.212119 -0.244916 0
-0.255319 -0.244681 0
-0.233674 -0.223466 0
-0.234043 -0.265957 0
-0.212766 -0.287234 0
-0.212119 -0.244916 0
-0.190657 -0.266392 0
-0.191489 -0.308511 0
-0.169261 -0.287934 0
-0.212766 -0.287234 0
-0.190657 -0.266392 0
-0.170213 -0.329787 0
-0.147854 -0.309624 0
-0.191489 -0.308511 0
-0.169261 -0.287934 0
-0.170213 -0.329787 0
-0.148936 -0.351064 0
-0.147854 -0.309624 0
-0.126431 -0.331364 0
-0.12766 -0.37234 0
-0.105256 -0.353368 0
-0.148936 -0.351064 0
-0.126431 -0.331364 0
-0.12766 -0.37234 0
-0.106383 -0.393617 0
-0.105256 -0.353368 0
-0.083924 -0.375263 0
-0.106383 -0.393617 0
-0.085106 -0.414894 0
-0.083924 -0.375263 0
-0.062097 -0.396824 0
-0.085106 -0.414894 0
-0.06383 -0.43617 0
-0.062097 -0.396824 0
-0.040132 -0.418076 0
-0.06383 -0.43617 0
-0.042553 -0.457447 0
-0.040132 -0.418076 0
-0.019646 -0.439891 0
-0.042553 -0.457447 0
-0.021277 -0.478723 0
-0.019646 -0.439891 0
-0.002475 -0.461393 0
-0.021277 -0.478723 0
0 -0.5 0
-0.002475 -0.461393 0
0.009599 -0.478226 0
0 -0.5 0
0.03 -0.5 0
0.009599 -0.478226 0
0.029922 -0.474701 0
0.03 -0.5 0
[...]
POINT_DATA 7324
VECTORS momentum double
0.000220613 -0.000455781 0
3.43426e-05 -0.00057945 0
0.00577392 -0.00077861 0
0.00608265 0.00299128 0
-5.35943e-05 -0.000401276 0
7.16997e-05 -0.000404264 0
1.32106e-06 -0.000902027 0
6.37084e-05 -0.00085997 0
-0.000191078 -0.00054142 0
1.32106e-06 -0.000902027 0
7.50016e-05 -0.000579033 0
6.37084e-05 -0.00085997 0
-4.43796e-05 -0.000975369 0
-0.000191078 -0.00054142 0
-1.68599e-06 -0.00107818 0
7.50016e-05 -0.000579033 0
3.29449e-05 -0.000671865 0
-4.43796e-05 -0.000975369 0
-1.23568e-05 -0.000776437 0
-1.68599e-06 -0.00107818 0
4.72379e-05 -0.00099671 0
3.29449e-05 -0.000671865 0
-4.13819e-05 -0.00100323 0
-1.23568e-05 -0.000776437 0
0.000171773 -0.000742719 0
4.72379e-05 -0.00099671 0
1.15198e-05 -0.000697049 0
-4.13819e-05 -0.00100323 0
2.01973e-06 -0.00126884 0
0.000171773 -0.000742719 0
-6.23579e-05 -0.000615183 0
1.15198e-05 -0.000697049 0
-0.000506209 -0.000806095 0
2.01973e-06 -0.00126884 0
-0.000757203 -0.000975815 0
-6.23579e-05 -0.000615183 0
-0.0003713 -0.00128824 0
-0.000757203 -0.000975815 0
-7.77361e-05 -0.000427673 0
-6.23579e-05 -0.000615183 0
-0.000195311 -0.00136161 0
-0.0003713 -0.00128824 0
-0.000514952 -0.000494754 0
-7.77361e-05 -0.000427673 0
3.39615e-05 -0.000859037 0
-0.000195311 -0.00136161 0
-0.000216967 -0.000486868 0
-0.000514952 -0.000494754 0
-2.64242e-05 -0.000593619 0
3.39615e-05 -0.000859037 0
-0.000236181 -0.000928176 0
-0.000216967 -0.000486868 0
-6.91454e-05 -0.00049402 0
-0.000236181 -0.000928176 0
1.51594e-05 -0.000383972 0
-0.000216967 -0.000486868 0
-3.909e-05 -0.000809548 0
-6.91454e-05 -0.00049402 0
-1.53764e-05 -0.000815611 0
1.51594e-05 -0.000383972 0
5.62983e-06 -0.000459087 0
-3.909e-05 -0.000809548 0
1.48527e-06 -0.000443745 0
-1.53764e-05 -0.000815611 0
-2.35202e-05 -0.000820233 0
5.62983e-06 -0.000459087 0
-3.2816e-06 -0.00082583 0
1.48527e-06 -0.000443745 0
1.30941e-06 -0.000422297 0
-2.35202e-05 -0.000820233 0
6.29635e-07 -0.000415149 0
-3.2816e-06 -0.00082583 0
-2.23036e-05 -0.00085212 0
1.30941e-06 -0.000422297 0
-2.36842e-06 -0.000854197 0
6.29635e-07 -0.000415149 0
6.01057e-06 -0.000380727 0
-2.23036e-05 -0.00085212 0
1.56099e-06 -0.000376279 0
-2.36842e-06 -0.000854197 0
-3.93775e-05 -0.000656544 0
-2.91459e-05 -0.00169333 0
-4.01169e-05 -0.000656698 0
-2.68746e-05 -0.00169316 0
-3.44504e-05 -0.000657102 0
-2.75907e-05 -0.00169534 0
-3.93775e-05 -0.000656544 0
-2.91459e-05 -0.00169333 0
-2.83614e-05 -0.000656728 0
-2.10663e-05 -0.00169716 0
-3.44504e-05 -0.000657102 0
-2.75907e-05 -0.00169534 0
-2.08795e-05 -0.00065586 0
-1.38956e-05 -0.00169885 0
-2.83614e-05 -0.000656728 0
-2.10663e-05 -0.00169716 0
-1.22542e-05 -0.000655203 0
-4.14664e-06 -0.00170096 0
-2.08795e-05 -0.00065586 0
-1.38956e-05 -0.00169885 0
-2.39706e-06 -0.000653808 0
6.3494e-06 -0.00170311 0
-1.22542e-05 -0.000655203 0
-4.14664e-06 -0.00170096 0
9.57117e-06 -0.000653089 0
1.81025e-05 -0.00170539 0
-2.39706e-06 -0.000653808 0
6.3494e-06 -0.00170311 0
2.1857e-05 -0.000651539 0
3.08996e-05 -0.00170841 0
9.57117e-06 -0.000653089 0
1.81025e-05 -0.00170539 0
3.64246e-05 -0.000650307 0
4.29957e-05 -0.00171153 0
2.1857e-05 -0.000651539 0
3.08996e-05 -0.00170841 0
5.10451e-05 -0.000649527 0
5.61623e-05 -0.00171526 0
3.64246e-05 -0.000650307 0
4.29957e-05 -0.00171153 0
6.76151e-05 -0.000648301 0
6.85938e-05 -0.0017187 0
5.10451e-05 -0.000649527 0
5.61623e-05 -0.00171526 0
8.47137e-05 -0.000647568 0
7.65921e-05 -0.00172344 0
6.76151e-05 -0.000648301 0
6.85938e-05 -0.0017187 0
8.47137e-05 -0.000647568 0
9.77756e-05 -0.000648185 0
7.65921e-05 -0.00172344 0
8.43212e-05 -0.00172866 0
0.000109133 -0.000648533 0
8.80291e-05 -0.00173572 0
9.77756e-05 -0.000648185 0
8.43212e-05 -0.00172866 0
0.000115011 -0.000651239 0
8.95871e-05 -0.0017417 0
0.000109133 -0.000648533 0
8.80291e-05 -0.00173572 0
0.000112064 -0.000653926 0
9.37671e-05 -0.0017453 0
0.000115011 -0.000651239 0
8.95871e-05 -0.0017417 0
0.000109727 -0.000655148 0
9.54371e-05 -0.00174574 0
0.000112064 -0.000653926 0
9.37671e-05 -0.0017453 0
9.77968e-05 -0.000657191 0
9.20928e-05 -0.00174466 0
0.000109727 -0.000655148 0
9.54371e-05 -0.00174574 0
7.8843e-05 -0.000657818 0
8.46655e-05 -0.00174269 0
9.77968e-05 -0.000657191 0
9.20928e-05 -0.00174466 0
6.01192e-05 -0.000656907 0
7.17507e-05 -0.00174005 0
7.8843e-05 -0.000657818 0
8.46655e-05 -0.00174269 0
4.63242e-05 -0.000655129 0
5.48717e-05 -0.00173967 0
6.01192e-05 -0.000656907 0
7.17507e-05 -0.00174005 0
3.39357e-05 -0.000655215 0
3.73306e-05 -0.00173862 0
4.63242e-05 -0.000655129 0
5.48717e-05 -0.00173967 0
2.09876e-05 -0.000655032 0
2.52961e-05 -0.00174185 0
3.39357e-05 -0.000655215 0
3.73306e-05 -0.00173862 0
9.83602e-06 -0.000655212 0
8.96434e-06 -0.0017429 0
2.09876e-05 -0.000655032 0
2.52961e-05 -0.00174185 0
4.37247e-06 -0.000656566 0
-3.10527e-06 -0.00174102 0
9.83602e-06 -0.000655212 0
8.96434e-06 -0.0017429 0
-1.36404e-05 -0.000660153 0
-1.97072e-05 -0.00173749 0
4.37247e-06 -0.000656566 0
-3.10527e-06 -0.00174102 0
-3.15951e-05 -0.000664399 0
-2.7028e-05 -0.00173247 0
-1.36404e-05 -0.000660153 0
-1.97072e-05 -0.00173749 0
-5.34434e-05 -0.000663738 0
-3.94463e-05 -0.00173255 0
-3.15951e-05 -0.000664399 0
-2.7028e-05 -0.00173247 0
-6.20038e-05 -0.000661384 0
-4.48579e-05 -0.00173353 0
-5.34434e-05 -0.000663738 0
-3.94463e-05 -0.00173255 0
-7.93602e-05 -0.000657739 0
-5.9939e-05 -0.00173697 0
-6.20038e-05 -0.000661384 0
-4.48579e-05 -0.00173353 0
-7.90713e-05 -0.000653028 0
-5.97436e-05 -0.00173877 0
-7.93602e-05 -0.000657739 0
-5.9939e-05 -0.00173697 0
-9.24121e-05 -0.000648339 0
-7.79386e-05 -0.00174069 0
-7.90713e-05 -0.000653028 0
-5.97436e-05 -0.00173877 0
-8.10467e-05 -0.000646442 0
-7.32492e-05 -0.00173294 0
-9.24121e-05 -0.000648339 0
-7.79386e-05 -0.00174069 0
-9.98193e-05 -0.000645586 0
-9.14739e-05 -0.00172358 0
-8.10467e-05 -0.000646442 0
-7.32492e-05 -0.00173294 0
-8.68956e-05 -0.000644023 0
-8.14462e-05 -0.00169621 0
-9.98193e-05 -0.000645586 0
-9.14739e-05 -0.00172358 0
-0.000131477 -0.00064348 0
-0.000131367 -0.00165853 0
-8.68956e-05 -0.000644023 0
-8.14462e-05 -0.00169621 0
-0.000166388 -0.000643171 0
-0.000162418 -0.00158511 0
-0.000131477 -0.00064348 0
-0.000131367 -0.00165853 0
-0.000323287 -0.000643591 0
-0.000301953 -0.00148681 0
-0.000166388 -0.000643171 0
-0.000162418 -0.00158511 0
-0.000486111 -0.000642501 0
-0.000449556 -0.00132458 0
-0.000323287 -0.000643591 0
-0.000301953 -0.00148681 0
-0.000486111 -0.000642501 0
-0.000872481 -0.000641214 0
-0.000449556 -0.00132458 0
-0.000792309 -0.00111931 0
-0.00132486 -0.00062904 0
-0.00119687 -0.000810422 0
-0.000872481 -0.000641214 0
-0.000792309 -0.00111931 0
-0.00217275 -0.000614125 0
-0.00197051 -0.00042429 0
-0.00132486 -0.00062904 0
-0.00119687 -0.000810422 0
-0.00323223 -0.000586315 0
-0.00298539 0.000161013 0
-0.00217275 -0.000614125 0
-0.00197051 -0.00042429 0
-0.00504943 -0.000558031 0
-0.00472199 0.000860931 0
-0.00323223 -0.000586315 0
-0.00298539 0.000161013 0
-0.00742034 -0.000510971 0
-0.00707158 0.00189666 0
-0.00504943 -0.000558031 0
-0.00472199 0.000860931 0
-0.00742034 -0.000510971 0
-0.011233 -0.000465162 0
-0.00707158 0.00189666 0
-0.010796 0.00312526 0
-0.011233 -0.000465162 0
-0.0162635 -0.000395428 0
-0.010796 0.00312526 0
-0.0158618 0.00497326 0
-0.0239334 -0.000344084 0
-0.0233942 0.00707786 0
-0.0162635 -0.000395428 0
-0.0158618 0.00497326 0
-0.0338611 -0.000241687 0
-0.0334604 0.0103015 0
-0.0239334 -0.000344084 0
-0.0233942 0.00707786 0
-0.0482393 -0.000201383 0
-0.0475182 0.0137238 0
-0.0338611 -0.000241687 0
-0.0334604 0.0103015 0
-0.0659863 -2.62647e-05 0
-0.0657222 0.0187964 0
-0.0482393 -0.000201383 0
-0.0475182 0.0137238 0
-0.0906779 -4.85394e-05 0
-0.089602 0.0235961 0
-0.0659863 -2.62647e-05 0
-0.0657222 0.0187964 0
-0.119533 0.000331177 0
-0.119848 0.0316796 0
-0.0906779 -4.85394e-05 0
-0.089602 0.0235961 0
-0.159993 6.1702e-05 0
-0.157377 0.0380041 0
-0.119533 0.000331177 0
-0.119848 0.0316796 0
-0.203726 0.00108574 0
-0.204665 0.052033 0
-0.159993 6.1702e-05 0
-0.157377 0.0380041 0
-0.268561 0.00141678 0
-0.258884 0.0535304 0
-0.203726 0.00108574 0
-0.204665 0.052033 0
-0.305605 0.000245865 0
-0.320762 0.0408077 0
-0.268561 0.00141678 0
-0.258884 0.0535304 0
-0.138387 -0.00445437 0
-0.121717 -0.0336518 0
-0.201637 -0.00204815 0
-0.179801 -0.082173 0
-6.11102e-06 -0.00039075 0
-3.39571e-05 -0.000850299 0
6.01057e-06 -0.000380727 0
-2.23036e-05 -0.00085212 0
-6.11102e-06 -0.00039075 0
-2.46526e-05 -0.000398069 0
-3.39571e-05 -0.000850299 0
-3.82696e-05 -0.000849963 0
-3.85034e-05 -0.000401643 0
-4.79817e-05 -0.000850293 0
-2.46526e-05 -0.000398069 0
-3.82696e-05 -0.000849963 0
-3.85034e-05 -0.000401643 0
-4.42125e-05 -0.000405365 0
-4.79817e-05 -0.000850293 0
-5.65087e-05 -0.000850382 0
-4.42125e-05 -0.000405365 0
-4.99881e-05 -0.000408041 0
-5.65087e-05 -0.000850382 0
-6.1942e-05 -0.000852678 0
-4.99881e-05 -0.000408041 0
-5.5696e-05 -0.000410255 0
-6.1942e-05 -0.000852678 0
-6.50255e-05 -0.000855976 0
-5.5696e-05 -0.000410255 0
-5.95217e-05 -0.000410626 0
-6.50255e-05 -0.000855976 0
-7.10167e-05 -0.000860551 0
-5.95217e-05 -0.000410626 0
-6.43353e-05 -0.000413107 0
-7.10167e-05 -0.000860551 0
-7.85032e-05 -0.00086409 0
-6.43353e-05 -0.000413107 0
-7.23259e-05 -0.000415285 0
-7.85032e-05 -0.00086409 0
-8.36422e-05 -0.000866928 0
-7.23259e-05 -0.000415285 0
-8.14641e-05 -0.000417305 0
-8.36422e-05 -0.000866928 0
-8.93989e-05 -0.000869407 0
-8.14641e-05 -0.000417305 0
-8.98994e-05 -0.000418409 0
-8.93989e-05 -0.000869407 0
-9.50457e-05 -0.000871057 0
-8.98994e-05 -0.000418409 0
-9.82348e-05 -0.00041956 0
-9.50457e-05 -0.000871057 0
-0.000101105 -0.000872215 0
-9.82348e-05 -0.00041956 0
-0.000104926 -0.000419889 0
-0.000101105 -0.000872215 0
-0.000105476 -0.000872955 0
-0.000104926 -0.000419889 0
-0.000110691 -0.00042023 0
-0.000105476 -0.000872955 0
-0.000110021 -0.000873706 0
-0.000110691 -0.00042023 0
-0.000113154 -0.000420352 0
-0.000110021 -0.000873706 0
-0.000112601 -0.000874857 0
-0.000113154 -0.000420352 0
-0.000112535 -0.000420564 0
-0.000112601 -0.000874857 0
-0.000115432 -0.000876767 0
-0.000112535 -0.000420564 0
-0.00011086 -0.00042129 0
-0.000115432 -0.000876767 0
-0.000115658 -0.000878263 0
-0.00011086 -0.00042129 0
-0.00010935 -0.000422191 0
-0.000115658 -0.000878263 0
-0.000113607 -0.000880513 0
-0.00010935 -0.000422191 0
-0.000105618 -0.000423152 0
-0.000113607 -0.000880513 0
-0.000109109 -0.000883005 0
-0.000105618 -0.000423152 0
-0.000102801 -0.000423928 0
-0.000109109 -0.000883005 0
-0.000104778 -0.000885538 0
-0.000102801 -0.000423928 0
-9.69314e-05 -0.00042425 0
-0.000104778 -0.000885538 0
-9.847e-05 -0.000888255 0
-9.69314e-05 -0.00042425 0
-9.10295e-05 -0.000424752 0
-9.847e-05 -0.000888255 0
-9.2567e-05 -0.000890444 0
-9.10295e-05 -0.000424752 0
-8.23235e-05 -0.000424829 0
-9.2567e-05 -0.000890444 0
-8.40501e-05 -0.000892162 0
-8.23235e-05 -0.000424829 0
-7.51381e-05 -0.000424819 0
-8.40501e-05 -0.000892162 0
-7.76128e-05 -0.000892944 0
0.168349 -0.161109 0
0.19509 -0.0862622 0
0.292849 -0.28186 0
0.303586 -0.095972 0
0.114755 -0.113125 0
0.134272 -0.0762258 0
0.168349 -0.161109 0
0.19509 -0.0862622 0
0.114755 -0.113125 0
0.0862571 -0.0857367 0
0.134272 -0.0762258 0
0.0991574 -0.0636333 0
0.0862571 -0.0857367 0
0.0680112 -0.0678228 0
0.0991574 -0.0636333 0
0.0763353 -0.0537089 0
0.0553656 -0.0554692 0
0.0609925 -0.0455991 0
0.0680112 -0.0678228 0
0.0763353 -0.0537089 0
0.0553656 -0.0554692 0
0.0457733 -0.0459658 0
0.0609925 -0.0455991 0
0.0495588 -0.0389508 0
0.0457733 -0.0459658 0
0.0382229 -0.0385198 0
0.0495588 -0.0389508 0
0.0407858 -0.0333631 0
0.0382229 -0.0385198 0
0.0319097 -0.0322459 0
0.0407858 -0.0333631 0
0.0336065 -0.0284229 0
0.0319097 -0.0322459 0
0.0265715 -0.0269515 0
0.0336065 -0.0284229 0
0.027625 -0.024097 0
0.021928 -0.02233 0
0.0225315 -0.0201807 0
0.0265715 -0.0269515 0
0.027625 -0.024097 0
0.0179321 -0.0183604 0
0.0181877 -0.0167538 0
0.021928 -0.02233 0
0.0225315 -0.0201807 0
0.0179321 -0.0183604 0
0.01448 -0.0149234 0
0.0181877 -0.0167538 0
0.0144968 -0.0137253 0
0.01448 -0.0149234 0
0.0115741 -0.012031 0
0.0144968 -0.0137253 0
0.011407 -0.0111444 0
0.0115741 -0.012031 0
0.00913536 -0.00959771 0
0.011407 -0.0111444 0
0.00884292 -0.00894957 0
0.00913536 -0.00959771 0
0.00716094 -0.00762675 0
0.00884292 -0.00894957 0
0.00676915 -0.00715544 0
0.00716094 -0.00762675 0
0.00555757 -0.00602444 0
0.00676915 -0.00715544 0
0.00510166 -0.00568521 0
0.00555757 -0.00602444 0
0.0043184 -0.00478392 0
0.00510166 -0.00568521 0
0.00381359 -0.00453812 0
0.0043184 -0.00478392 0
0.00333537 -0.00380145 0
0.00381359 -0.00453812 0
0.00280028 -0.00363237 0
0.00261638 -0.00307093 0
0.00205821 -0.00296288 0
0.00333537 -0.00380145 0
0.00280028 -0.00363237 0
0.00205191 -0.00249874 0
0.00145497 -0.00243355 0
0.00261638 -0.00307093 0
0.00205821 -0.00296288 0
0.00205191 -0.00249874 0
0.00166506 -0.0021149 0
0.00145497 -0.00243355 0
0.00105552 -0.00205477 0
0.00133911 -0.00180318 0
0.000728578 -0.00174428 0
0.00166506 -0.0021149 0
0.00105552 -0.00205477 0
0.00113778 -0.0016304 0
0.000582166 -0.00155136 0
0.00133911 -0.00180318 0
0.000728578 -0.00174428 0
0.00113778 -0.0016304 0
0.000933798 -0.00142704 0
0.000582166 -0.00155136 0
0.000406002 -0.00140968 0
0.000890284 -0.00136857 0
0.000352224 -0.00137032 0
0.000933798 -0.00142704 0
0.000406002 -0.00140968 0
0.000890284 -0.00136857 0
0.000798928 -0.00127716 0
0.000352224 -0.00137032 0
0.000227672 -0.00127337 0
0.000798928 -0.00127716 0
0.000819089 -0.00131408 0
0.000227672 -0.00127337 0
0.000312295 -0.00129458 0
0.000819089 -0.00131408 0
0.000673799 -0.00117044 0
0.000312295 -0.00129458 0
0.00022815 -0.00110265 0
0.000673799 -0.00117044 0
0.000519344 -0.000985071 0
0.00022815 -0.00110265 0
0.000457565 -0.00126194 0
0.000519344 -0.000985071 0
0.000374255 -0.000689989 0
0.000457565 -0.00126194 0
0.000243986 -0.000645894 0
0.000374255 -0.000689989 0
0.000189614 -0.000482692 0
0.000243986 -0.000645894 0
0.000149844 -0.000959231 0
0.000189614 -0.000482692 0
0.000431842 -0.000283611 0
0.000149844 -0.000959231 0
0.000310166 -0.000765694 0
0.000431842 -0.000283611 0
0.000332946 -0.000371258 0
0.000310166 -0.000765694 0
-9.59728e-05 -0.000845537 0
0.000332946 -0.000371258 0
0.000230938 -0.000448139 0
-9.59728e-05 -0.000845537 0
0.000149543 -0.0007909 0
0.000230938 -0.000448139 0
-5.35943e-05 -0.000401276 0
0.000149543 -0.0007909 0
1.32106e-06 -0.000902027 0
-8.40501e-05 -0.000892162 0
-7.76128e-05 -0.000892944 0
-8.59719e-05 -0.0005319 0
-8.02311e-05 -0.000535251 0
-8.59719e-05 -0.0005319 0
-8.02311e-05 -0.000535251 0
-9.07992e-05 -0.000895279 0
-8.57541e-05 -0.000897979 0
-9.07992e-05 -0.000895279 0
-8.57541e-05 -0.000897979 0
-9.76691e-05 -0.000635088 0
-9.20252e-05 -0.000639147 0
-9.76691e-05 -0.000635088 0
-9.20252e-05 -0.000639147 0
-0.000105166 -0.000918172 0
-0.000101633 -0.000923327 0
-0.000105166 -0.000918172 0
-0.000101633 -0.000923327 0
-0.000115348 -0.000738717 0
-0.00011101 -0.000744408 0
-0.000115348 -0.000738717 0
-0.00011101 -0.000744408 0
-0.000125354 -0.000964861 0
-0.000122417 -0.000971923 0
-0.000138504 -0.000855032 0
-0.000125354 -0.000964861 0
-0.000134992 -0.000863039 0
-0.000122417 -0.000971923 0
-0.000138504 -0.000855032 0
-0.000134992 -0.000863039 0
-0.000152731 -0.00104427 0
-0.000149679 -0.00105346 0
-0.000152731 -0.00104427 0
-0.000149679 -0.00105346 0
-0.000170051 -0.000997231 0
-0.000166852 -0.00100816 0
-0.000170051 -0.000997231 0
-0.000166852 -0.00100816 0
-0.000190661 -0.00116384 0
-0.000188308 -0.00117626 0
-0.000190661 -0.00116384 0
-0.000188308 -0.00117626 0
-0.000215242 -0.00117151 0
-0.000214145 -0.0011865 0
-0.000215242 -0.00117151 0
-0.000214145 -0.0011865 0
-0.000245753 -0.00131703 0
-0.000249157 -0.00133464 0
-0.000245753 -0.00131703 0
-0.000249157 -0.00133464 0
-0.000281299 -0.00136047 0
-0.000291404 -0.00138088 0
-0.000281299 -0.00136047 0
-0.000291404 -0.00138088 0
-0.000322998 -0.00146633 0
-0.000345023 -0.00148952 0
-0.000322998 -0.00146633 0
-0.000345023 -0.00148952 0
-0.000366724 -0.00151199 0
-0.000404973 -0.00153598 0
-0.000366724 -0.00151199 0
-0.000404973 -0.00153598 0
-0.000408781 -0.00154365 0
-0.000467132 -0.00156597 0
-0.000408781 -0.00154365 0
-0.000467132 -0.00156597 0
-0.000439481 -0.00155838 0
-0.000517796 -0.00157384 0
-0.000439481 -0.00155838 0
-0.000517796 -0.00157384 0
-0.000450451 -0.00149254 0
-0.000541855 -0.00149657 0
-0.000450451 -0.00149254 0
-0.000541855 -0.00149657 0
-0.000435024 -0.0014824 0
-0.000525329 -0.00147164 0
-0.000435024 -0.0014824 0
-0.000525329 -0.00147164 0
-0.00039463 -0.00134107 0
-0.000469906 -0.00131963 0
-0.00039463 -0.00134107 0
-0.000469906 -0.00131963 0
-0.000338505 -0.00136072 0
-0.0003926 -0.00133266 0
-0.000338505 -0.00136072 0
-0.0003926 -0.00133266 0
-0.000275247 -0.00117915 0
-0.000308712 -0.00115098 0
-0.000275247 -0.00117915 0
-0.000308712 -0.00115098 0
-0.000217876 -0.00127909 0
-0.00023457 -0.00125239 0
-0.000217876 -0.00127909 0
-0.00023457 -0.00125239 0
-0.00016299 -0.0010579 0
-0.000168565 -0.00103738 0
-0.00016299 -0.0010579 0
-0.000168565 -0.00103738 0
-0.000127318 -0.0012686 0
-0.000128476 -0.00125025 0
-0.000127318 -0.0012686 0
-0.000128476 -0.00125025 0
-8.91012e-05 -0.000976567 0
-8.61489e-05 -0.000961645 0
-8.91012e-05 -0.000976567 0
-8.61489e-05 -0.000961645 0
-6.61109e-05 -0.00133935 0
-6.41025e-05 -0.001327 0
-6.61109e-05 -0.00133935 0
-6.41025e-05 -0.001327 0
-3.85088e-05 -0.000912659 0
-3.44556e-05 -0.000904477 0
-3.85088e-05 -0.000912659 0
-3.44556e-05 -0.000904477 0
-3.37007e-05 -0.00148139 0
-3.11913e-05 -0.0014777 0
-3.37007e-05 -0.00148139 0
-3.11913e-05 -0.0014777 0
-2.69924e-05 -0.000824174 0
-2.53521e-05 -0.000821144 0
-2.69924e-05 -0.000824174 0
-2.53521e-05 -0.000821144 0
-2.91459e-05 -0.00169333 0
-2.68746e-05 -0.00169316 0
0.19509 -0.0862622 0
0.180039 -0.0124416 0
0.303586 -0.095972 0
0.231753 0.0344598 0
0.134272 -0.0762258 0
0.132312 -0.0274439 0
0.19509 -0.0862622 0
0.180039 -0.0124416 0
0.134272 -0.0762258 0
0.0991574 -0.0636333 0
0.132312 -0.0274439 0
0.101196 -0.0345638 0
0.0991574 -0.0636333 0
0.0763353 -0.0537089 0
0.101196 -0.0345638 0
0.0788881 -0.0334359 0
0.0609925 -0.0455991 0
0.0633199 -0.032015 0
0.0763353 -0.0537089 0
0.0788881 -0.0334359 0
0.0609925 -0.0455991 0
0.0495588 -0.0389508 0
0.0633199 -0.032015 0
0.0514956 -0.0288639 0
0.0495588 -0.0389508 0
0.0407858 -0.0333631 0
0.0514956 -0.0288639 0
0.0422343 -0.0259533 0
0.0407858 -0.0333631 0
0.0336065 -0.0284229 0
0.0422343 -0.0259533 0
0.0347457 -0.0227219 0
0.0336065 -0.0284229 0
0.027625 -0.024097 0
0.0347457 -0.0227219 0
0.0284293 -0.0196805 0
0.0225315 -0.0201807 0
0.0231274 -0.0167247 0
0.027625 -0.024097 0
0.0284293 -0.0196805 0
0.0181877 -0.0167538 0
0.0185658 -0.0140323 0
0.0225315 -0.0201807 0
0.0231274 -0.0167247 0
0.0181877 -0.0167538 0
0.0144968 -0.0137253 0
0.0185658 -0.0140323 0
0.0147402 -0.011567 0
0.0144968 -0.0137253 0
0.011407 -0.0111444 0
0.0147402 -0.011567 0
0.0115179 -0.00941033 0
0.011407 -0.0111444 0
0.00884292 -0.00894957 0
0.0115179 -0.00941033 0
0.00888343 -0.00754267 0
0.00884292 -0.00894957 0
0.00676915 -0.00715544 0
0.00888343 -0.00754267 0
0.00674884 -0.00598552 0
0.00676915 -0.00715544 0
0.00510166 -0.00568521 0
0.00674884 -0.00598552 0
0.00504933 -0.0047071 0
0.00510166 -0.00568521 0
0.00381359 -0.00453812 0
0.00504933 -0.0047071 0
0.00372072 -0.00369567 0
0.00381359 -0.00453812 0
0.00280028 -0.00363237 0
0.00372072 -0.00369567 0
0.00269366 -0.00289437 0
0.00205821 -0.00296288 0
0.00194505 -0.00226753 0
0.00280028 -0.00363237 0
0.00269366 -0.00289437 0
0.00145497 -0.00243355 0
0.00138105 -0.00179783 0
0.00205821 -0.00296288 0
0.00194505 -0.00226753 0
0.00145497 -0.00243355 0
0.00105552 -0.00205477 0
0.00138105 -0.00179783 0
0.000995086 -0.00145619 0
0.000728578 -0.00174428 0
0.000672436 -0.00124109 0
0.00105552 -0.00205477 0
0.000995086 -0.00145619 0
0.000582166 -0.00155136 0
0.000471371 -0.00108609 0
0.000728578 -0.00174428 0
0.000672436 -0.00124109 0
0.000582166 -0.00155136 0
0.000406002 -0.00140968 0
0.000471371 -0.00108609 0
0.000243679 -0.000923286 0