# vtk DataFile Version 3.0
#This file was generated by the deal.II library on 2016/12/20 at 10:57:10
ASCII
DATASET UNSTRUCTURED_GRID

POINTS 7540 double
0.12 -0.5 0
0.15 -0.5 0
0.119014 -0.4708 0
0.15 -0.471429 0
0.11755 -0.441479 0
0.119014 -0.4708 0
0.15 -0.442857 0
0.15 -0.471429 0
0.117242 -0.412206 0
0.11755 -0.441479 0
0.15 -0.414286 0
0.15 -0.442857 0
0.118129 -0.383064 0
0.117242 -0.412206 0
0.15 -0.385714 0
0.15 -0.414286 0
0.12021 -0.354337 0
0.118129 -0.383064 0
0.15 -0.357143 0
0.15 -0.385714 0
0.121793 -0.32584 0
0.12021 -0.354337 0
0.15 -0.328571 0
0.15 -0.357143 0
0.122717 -0.296869 0
0.121793 -0.32584 0
0.15 -0.3 0
0.15 -0.328571 0
0.123759 -0.266752 0
0.122717 -0.296869 0
0.153091 -0.267708 0
0.15 -0.3 0
0.18456 -0.26795 0
0.153091 -0.267708 0
0.183333 -0.3 0
0.15 -0.3 0
0.216606 -0.268111 0
0.18456 -0.26795 0
0.216667 -0.3 0
0.183333 -0.3 0
0.24835 -0.26841 0
0.216606 -0.268111 0
0.25 -0.3 0
0.216667 -0.3 0
0.278782 -0.268564 0
0.24835 -0.26841 0
0.279437 -0.298917 0
0.25 -0.3 0
0.279638 -0.328111 0
0.279437 -0.298917 0
0.25 -0.328571 0
0.25 -0.3 0
0.27971 -0.356801 0
0.279638 -0.328111 0
0.25 -0.357143 0
0.25 -0.328571 0
0.279677 -0.385395 0
0.27971 -0.356801 0
0.25 -0.385714 0
0.25 -0.357143 0
0.279641 -0.413938 0
0.279677 -0.385395 0
0.25 -0.414286 0
0.25 -0.385714 0
0.279666 -0.442534 0
0.279641 -0.413938 0
0.25 -0.442857 0
0.25 -0.414286 0
0.279811 -0.471266 0
0.279666 -0.442534 0
0.25 -0.471429 0
0.25 -0.442857 0
0.28 -0.5 0
0.279811 -0.471266 0
0.25 -0.5 0
0.25 -0.471429 0
0.970149 0.5 0
0.970096 0.46978 0
1 0.5 0
1 0.469697 0
0.940299 0.5 0
0.940231 0.46984 0
0.970149 0.5 0
0.970096 0.46978 0
0.910448 0.5 0
0.910371 0.469856 0
0.940299 0.5 0
0.940231 0.46984 0
0.880597 0.5 0
0.880527 0.469909 0
0.910448 0.5 0
0.910371 0.469856 0
0.850746 0.5 0
0.850684 0.469926 0
0.880597 0.5 0
0.880527 0.469909 0
0.820896 0.5 0
0.820842 0.469978 0
0.850746 0.5 0
0.850684 0.469926 0
0.791045 0.5 0
0.791001 0.470016 0
0.820896 0.5 0
0.820842 0.469978 0
0.761194 0.5 0
0.761159 0.470055 0
0.791045 0.5 0
0.791001 0.470016 0
0.731343 0.5 0
0.731316 0.470091 0
0.761194 0.5 0
0.761159 0.470055 0
0.701493 0.5 0
0.701472 0.470118 0
0.731343 0.5 0
0.731316 0.470091 0
0.671642 0.5 0
0.671627 0.470134 0
0.701493 0.5 0
0.701472 0.470118 0
0.641791 0.5 0
0.64178 0.470142 0
0.671642 0.5 0
0.671627 0.470134 0
0.641791 0.5 0
0.61194 0.5 0
0.64178 0.470142 0
0.611934 0.470065 0
0.58209 0.5 0
0.582089 0.470002 0
0.61194 0.5 0
0.611934 0.470065 0
0.552239 0.5 0
0.552248 0.469853 0
0.58209 0.5 0
0.582089 0.470002 0
0.522388 0.5 0
0.522413 0.469718 0
0.552239 0.5 0
0.552248 0.469853 0
0.492537 0.5 0
0.492577 0.469656 0
0.522388 0.5 0
0.522413 0.469718 0
0.462687 0.5 0
0.462743 0.469571 0
0.492537 0.5 0
0.492577 0.469656 0
0.432836 0.5 0
0.432895 0.46963 0
0.462687 0.5 0
0.462743 0.469571 0
0.402985 0.5 0
0.403046 0.469669 0
0.432836 0.5 0
0.432895 0.46963 0
0.373134 0.5 0
0.373191 0.469745 0
0.402985 0.5 0
0.403046 0.469669 0
0.343284 0.5 0
0.343335 0.469723 0
0.373134 0.5 0
0.373191 0.469745 0
0.313433 0.5 0
0.313478 0.469741 0
0.343284 0.5 0
0.343335 0.469723 0
0.283582 0.5 0
0.283622 0.469783 0
0.313433 0.5 0
0.313478 0.469741 0
0.253731 0.5 0
0.253768 0.469742 0
0.283582 0.5 0
0.283622 0.469783 0
0.223881 0.5 0
0.223918 0.469737 0
0.253731 0.5 0
0.253768 0.469742 0
0.19403 0.5 0
0.194064 0.46981 0
0.223881 0.5 0
0.223918 0.469737 0
0.164179 0.5 0
0.16421 0.469881 0
0.19403 0.5 0
0.194064 0.46981 0
0.134328 0.5 0
0.134355 0.46994 0
0.164179 0.5 0
0.16421 0.469881 0
0.104478 0.5 0
0.1045 0.469997 0
0.134328 0.5 0
0.134355 0.46994 0
0.074627 0.5 0
0.074645 0.470051 0
0.104478 0.5 0
0.1045 0.469997 0
0.044776 0.5 0
0.04479 0.470093 0
0.074627 0.5 0
0.074645 0.470051 0
0.014925 0.5 0
0.014935 0.47012 0
0.044776 0.5 0
0.04479 0.470093 0
-0.014925 0.5 0
-0.014918 0.470135 0
0.014925 0.5 0
0.014935 0.47012 0
-0.044776 0.5 0
-0.044771 0.470143 0
-0.014925 0.5 0
-0.014918 0.470135 0
-0.074627 0.5 0
-0.074623 0.470146 0
-0.044776 0.5 0
-0.044771 0.470143 0
-0.104478 0.5 0
-0.104496 0.469979 0
-0.074627 0.5 0
-0.074623 0.470146 0
-0.134328 0.5 0
-0.134359 0.469935 0
-0.104478 0.5 0
-0.104496 0.469979 0
-0.164179 0.5 0
-0.164225 0.469839 0
-0.134328 0.5 0
-0.134359 0.469935 0
-0.164179 0.5 0
-0.19403 0.5 0
-0.164225 0.469839 0
-0.194083 0.469797 0
-0.223881 0.5 0
-0.22394 0.469753 0
-0.19403 0.5 0
-0.194083 0.469797 0
-0.253731 0.5 0
-0.253798 0.469819 0
-0.223881 0.5 0
-0.22394 0.469753 0
-0.283582 0.5 0
-0.283647 0.470019 0
-0.253731 0.5 0
-0.253798 0.469819 0
-0.313433 0.5 0
-0.313491 0.470151 0
-0.283582 0.5 0
-0.283647 0.470019 0
-0.343284 0.5 0
-0.343348 0.470381 0
-0.313433 0.5 0
-0.313491 0.470151 0
-0.343284 0.5 0
-0.373134 0.5 0
-0.343348 0.470381 0
-0.373195 0.470395 0
-0.373134 0.5 0
-0.402985 0.5 0
-0.373195 0.470395 0
-0.403049 0.470404 0
-0.432836 0.5 0
-0.432937 0.470297 0
-0.402985 0.5 0
-0.403049 0.470404 0
-0.462687 0.5 0
-0.462848 0.469995 0
-0.432836 0.5 0
-0.432937 0.470297 0
-0.492537 0.5 0
-0.492807 0.469765 0
-0.462687 0.5 0
-0.462848 0.469995 0
-0.522388 0.5 0
-0.52276 0.46958 0
-0.492537 0.5 0
-0.492807 0.469765 0
-0.552239 0.5 0
-0.55273 0.469652 0
-0.522388 0.5 0
-0.52276 0.46958 0
-0.58209 0.5 0
-0.582662 0.469731 0
-0.552239 0.5 0
-0.55273 0.469652 0
-0.61194 0.5 0
-0.612594 0.469999 0
-0.58209 0.5 0
-0.582662 0.469731 0
-0.641791 0.5 0
-0.642647 0.470419 0
-0.61194 0.5 0
-0.612594 0.469999 0
-0.671642 0.5 0
-0.672638 0.470543 0
-0.641791 0.5 0
-0.642647 0.470419 0
-0.701493 0.5 0
-0.702968 0.4698 0
-0.671642 0.5 0
-0.672638 0.470543 0
-0.701493 0.5 0
-0.731343 0.5 0
-0.702968 0.4698 0
-0.733232 0.468149 0
-0.731343 0.5 0
-0.761194 0.5 0
-0.733232 0.468149 0
-0.765399 0.466448 0
-0.791045 0.5 0
-0.795702 0.469563 0
-0.761194 0.5 0
-0.765399 0.466448 0
-0.820896 0.5 0
-0.822797 0.47207 0
-0.791045 0.5 0
-0.795702 0.469563 0
0.31 -0.5 0
0.309694 -0.471123 0
0.28 -0.5 0
0.279811 -0.471266 0
0.31 -0.5 0
0.34 -0.5 0
0.309694 -0.471123 0
0.339686 -0.471033 0
0.37 -0.5 0
0.369721 -0.471055 0
0.34 -0.5 0
0.339686 -0.471033 0
0.37 -0.5 0
0.4 -0.5 0
0.369721 -0.471055 0
0.399756 -0.470957 0
0.4 -0.5 0
0.43 -0.5 0
0.399756 -0.470957 0
0.429805 -0.470822 0
0.43 -0.5 0
0.46 -0.5 0
0.429805 -0.470822 0
0.459835 -0.470712 0
0.46 -0.5 0
0.49 -0.5 0
0.459835 -0.470712 0
0.489873 -0.470554 0
0.49 -0.5 0
0.52 -0.5 0
0.489873 -0.470554 0
0.519906 -0.470379 0
0.52 -0.5 0
0.55 -0.5 0
0.519906 -0.470379 0
0.54993 -0.470248 0
0.55 -0.5 0
0.58 -0.5 0
0.54993 -0.470248 0
0.579948 -0.470155 0
0.58 -0.5 0
0.61 -0.5 0
0.579948 -0.470155 0
0.609962 -0.470091 0
0.61 -0.5 0
0.64 -0.5 0
0.609962 -0.470091 0
0.639972 -0.47005 0
0.64 -0.5 0
0.67 -0.5 0
0.639972 -0.47005 0
0.66998 -0.470026 0
0.67 -0.5 0
0.7 -0.5 0
0.66998 -0.470026 0
0.699986 -0.470013 0
0.7 -0.5 0
0.73 -0.5 0
0.699986 -0.470013 0
0.72999 -0.470006 0
0.73 -0.5 0
0.76 -0.5 0
0.72999 -0.470006 0
0.759994 -0.470003 0
0.76 -0.5 0
0.79 -0.5 0
0.759994 -0.470003 0
0.78998 -0.469916 0
0.79 -0.5 0
0.82 -0.5 0
0.78998 -0.469916 0
0.819956 -0.469877 0
0.82 -0.5 0
0.85 -0.5 0
0.819956 -0.469877 0
0.849929 -0.469833 0
0.85 -0.5 0
0.88 -0.5 0
0.849929 -0.469833 0
0.879924 -0.469805 0
0.88 -0.5 0
0.91 -0.5 0
0.879924 -0.469805 0
0.909913 -0.469792 0
0.91 -0.5 0
0.94 -0.5 0
0.909913 -0.469792 0
0.939922 -0.469775 0
0.94 -0.5 0
0.97 -0.5 0
0.939922 -0.469775 0
0.969956 -0.46974 0
0.97 -0.5 0
1 -0.5 0
0.969956 -0.46974 0
1 -0.469697 0
-0.510638 0.010638 0
-0.489362 -0.010638 0
-0.489127 0.032461 0
-0.467791 0.011178 0
-0.489362 -0.010638 0
-0.468085 -0.031915 0
-0.467791 0.011178 0
-0.446536 -0.010172 0
-0.446809 -0.053191 0
-0.42524 -0.031466 0
-0.468085 -0.031915 0
-0.446536 -0.010172 0
-0.425532 -0.074468 0
-0.404012 -0.052824 0
-0.446809 -0.053191 0
-0.42524 -0.031466 0
-0.425532 -0.074468 0
-0.404255 -0.095745 0
-0.404012 -0.052824 0
-0.382783 -0.074175 0
-0.404255 -0.095745 0
-0.382979 -0.117021 0
-0.382783 -0.074175 0
-0.361545 -0.095511 0
-0.382979 -0.117021 0
-0.361702 -0.138298 0
-0.361545 -0.095511 0
-0.340288 -0.116831 0
-0.361702 -0.138298 0
-0.340426 -0.159574 0
-0.340288 -0.116831 0
-0.319034 -0.138159 0
-0.340426 -0.159574 0
-0.319149 -0.180851 0
-0.319034 -0.138159 0
-0.297766 -0.159484 0
-0.319149 -0.180851 0
-0.297872 -0.202128 0
-0.297766 -0.159484 0
-0.276489 -0.180797 0
-0.297872 -0.202128 0
-0.276596 -0.223404 0
-0.276489 -0.180797 0
-0.255087 -0.202105 0
-0.255319 -0.244681 0
-0.233674 -0.223466 0
-0.276596 -0.223404 0
-0.255087 -0.202105 0
-0.234043 -0.265957 0
-0.212119 -0.244916 0
-0.255319 -0.244681 0
-0.233674 -0.223466 0
-0.234043 -0.265957 0
-0.212766 -0.287234 0
-0.212119 -0.244916 0
-0.190657 -0.266392 0
-0.191489 -0.308511 0
-0.169261 -0.287934 0
-0.212766 -0.287234 0
-0.190657 -0.266392 0
-0.170213 -0.329787 0
-0.147854 -0.309624 0
-0.191489 -0.308511 0
-0.169261 -0.287934 0
-0.170213 -0.329787 0
-0.148936 -0.351064 0
-0.147854 -0.309624 0
-0.126431 -0.331364 0
-0.12766 -0.37234 0
-0.105256 -0.353368 0
-0.148936 -0.351064 0
-0.126431 -0.331364 0
-0.12766 -0.37234 0
-0.106383 -0.393617 0
-0.105256 -0.353368 0
-0.083924 -0.375263 0
-0.106383 -0.393617 0
-0.085106 -0.414894 0
-0.083924 -0.375263 0
-0.062097 -0.396824 0
-0.085106 -0.414894 0
-0.06383 -0.43617 0
-0.062097 -0.396824 0
-0.040132 -0.418076 0
-0.06383 -0.43617 0
-0.042553 -0.457447 0
-0.040132 -0.418076 0
-0.019646 -0.439891 0
-0.042553 -0.457447 0
-0.021277 -0.478723 0
-0.019646 -0.439891 0
-0.002475 -0.461393 0
-0.021277 -0.478723 0
0 -0.5 0
-0.002475 -0.461393 0
0.009599 -0.478226 0
0 -0.5 0
0.03 -0.5 0
0.009599 -0.478226 0
0.029922 -0.474701 0
0.03 -0.5 0
0.06 -0.5 0
0.029922 -0.474701 0
0.057397 -0.471689 0
0.06 -0.5 0
0.09 -0.5 0
0.057397 -0.471689 0
0.08796 -0.470463 0
0.09 -0.5 0
0.12 -0.5 0
0.08796 -0.470463 0
0.119014 -0.4708 0
0.969956 -0.46974 0
1 -0.469697 0
0.969923 -0.439465 0
1 -0.439394 0
0.969923 -0.439465 0
1 -0.439394 0
0.969894 -0.409159 0
1 -0.409091 0
0.969894 -0.409159 0
1 -0.409091 0
0.969889 -0.37886 0
1 -0.378788 0
0.969889 -0.37886 0
1 -0.378788 0
[...]
POINT_DATA 7540
VECTORS momentum double
0.00128952 -0.000394701 0
0.000120225 -0.000372589 0
0.00147019 -0.00163938 0
0.000116152 -0.00158103 0
0.00139636 -0.00189198 0
0.00147019 -0.00163938 0
0.000122409 -0.0017074 0
0.000116152 -0.00158103 0
0.00183931 -0.0027933 0
0.00139636 -0.00189198 0
0.000105839 -0.0028618 0
0.000122409 -0.0017074 0
0.00208756 -0.00259619 0
0.00183931 -0.0027933 0
-3.11304e-05 -0.00233397 0
0.000105839 -0.0028618 0
0.00264404 -0.00269852 0
0.00208756 -0.00259619 0
0.00030794 -0.00285158 0
-3.11304e-05 -0.00233397 0
0.0032458 -0.00141319 0
0.00264404 -0.00269852 0
-0.00100075 -0.000599572 0
0.00030794 -0.00285158 0
0.00605643 -0.000254333 0
0.0032458 -0.00141319 0
0.00433448 0.000955702 0
-0.00100075 -0.000599572 0
0.00871354 -0.00158321 0
0.00605643 -0.000254333 0
0.00986957 -0.000947251 0
0.00433448 0.000955702 0
0.00808134 -0.0037811 0
0.00986957 -0.000947251 0
0.00856466 -0.00177538 0
0.00433448 0.000955702 0
0.00785771 -0.000828557 0
0.00808134 -0.0037811 0
0.00794677 0.0010019 0
0.00856466 -0.00177538 0
0.00943263 -0.00391327 0
0.00785771 -0.000828557 0
0.00421359 -0.00353496 0
0.00794677 0.0010019 0
0.00593979 -0.00453591 0
0.00943263 -0.00391327 0
0.00332674 -0.00717495 0
0.00421359 -0.00353496 0
4.3499e-05 -0.00441039 0
0.00332674 -0.00717495 0
-0.00136847 -0.00539158 0
0.00421359 -0.00353496 0
0.000740702 -0.00356552 0
4.3499e-05 -0.00441039 0
0.000405693 -0.00263045 0
-0.00136847 -0.00539158 0
7.31757e-05 -0.00248132 0
0.000740702 -0.00356552 0
-0.000178307 -0.0030722 0
0.000405693 -0.00263045 0
0.000323374 -0.00208558 0
7.31757e-05 -0.00248132 0
8.97547e-05 -0.00177838 0
-0.000178307 -0.0030722 0
2.89866e-05 -0.00136236 0
0.000323374 -0.00208558 0
-4.69348e-05 -0.0015661 0
8.97547e-05 -0.00177838 0
0.000139012 -0.00117777 0
2.89866e-05 -0.00136236 0
2.85643e-05 -0.0010778 0
-4.69348e-05 -0.0015661 0
5.58934e-05 -0.000470336 0
0.000139012 -0.00117777 0
-1.60744e-05 -0.000541372 0
2.85643e-05 -0.0010778 0
-0.000244353 -0.000650292 0
-0.0002363 -0.0017865 0
-0.000228201 -0.000650494 0
-0.000217341 -0.00178767 0
-0.000259663 -0.000650816 0
-0.000254765 -0.00178773 0
-0.000244353 -0.000650292 0
-0.0002363 -0.0017865 0
-0.000269657 -0.000650442 0
-0.000264552 -0.00178983 0
-0.000259663 -0.000650816 0
-0.000254765 -0.00178773 0
-0.000278144 -0.000649571 0
-0.000273857 -0.00179113 0
-0.000269657 -0.000650442 0
-0.000264552 -0.00178983 0
-0.000281528 -0.000648855 0
-0.000276723 -0.00179261 0
-0.000278144 -0.000649571 0
-0.000273857 -0.00179113 0
-0.000282657 -0.000647421 0
-0.000277783 -0.00179357 0
-0.000281528 -0.000648855 0
-0.000276723 -0.00179261 0
-0.000277734 -0.000646646 0
-0.000273636 -0.00179474 0
-0.000282657 -0.000647421 0
-0.000277783 -0.00179357 0
-0.000269854 -0.000645049 0
-0.000265931 -0.0017966 0
-0.000277734 -0.000646646 0
-0.000273636 -0.00179474 0
-0.000254806 -0.000643765 0
-0.000254138 -0.00179851 0
-0.000269854 -0.000645049 0
-0.000265931 -0.0017966 0
-0.000235408 -0.000642902 0
-0.000236862 -0.00180068 0
-0.000254806 -0.000643765 0
-0.000254138 -0.00179851 0
-0.000208153 -0.000641546 0
-0.000213988 -0.00180212 0
-0.000235408 -0.000642902 0
-0.000236862 -0.00180068 0
-0.000174033 -0.000640681 0
-0.000188663 -0.00180382 0
-0.000208153 -0.000641546 0
-0.000213988 -0.00180212 0
-0.000174033 -0.000640681 0
-0.0001358 -0.000641041 0
-0.000188663 -0.00180382 0
-0.000154872 -0.00180516 0
-8.90024e-05 -0.000641136 0
-0.000114284 -0.00180659 0
-0.0001358 -0.000641041 0
-0.000154872 -0.00180516 0
-3.44574e-05 -0.000643484 0
-6.22774e-05 -0.00180505 0
-8.90024e-05 -0.000641136 0
-0.000114284 -0.00180659 0
2.87026e-05 -0.000645656 0
1.02439e-05 -0.00179807 0
-3.44574e-05 -0.000643484 0
-6.22774e-05 -0.00180505 0
0.000113932 -0.000646313 0
0.000102467 -0.00178408 0
2.87026e-05 -0.000645656 0
1.02439e-05 -0.00179807 0
0.000218413 -0.000647553 0
0.00021962 -0.00176483 0
0.000113932 -0.000646313 0
0.000102467 -0.00178408 0
0.000351751 -0.000647321 0
0.000369921 -0.00174115 0
0.000218413 -0.000647553 0
0.00021962 -0.00176483 0
0.000533979 -0.000645501 0
0.000565082 -0.00171358 0
0.000351751 -0.000647321 0
0.000369921 -0.00174115 0
0.000779487 -0.00064278 0
0.000816237 -0.00168463 0
0.000533979 -0.000645501 0
0.000565082 -0.00171358 0
0.00110019 -0.000641747 0
0.0011422 -0.00164943 0
0.000779487 -0.00064278 0
0.000816237 -0.00168463 0
0.00150009 -0.000640376 0
0.00155507 -0.00161151 0
0.00110019 -0.000641747 0
0.0011422 -0.00164943 0
0.0019936 -0.000639367 0
0.00205692 -0.00156254 0
0.00150009 -0.000640376 0
0.00155507 -0.00161151 0
0.00258032 -0.00063919 0
0.00265289 -0.00150159 0
0.0019936 -0.000639367 0
0.00205692 -0.00156254 0
0.00324478 -0.000641112 0
0.00333679 -0.00142951 0
0.00258032 -0.00063919 0
0.00265289 -0.00150159 0
0.0039798 -0.000643374 0
0.00410163 -0.00134999 0
0.00324478 -0.000641112 0
0.00333679 -0.00142951 0
0.004769 -0.000640682 0
0.0049202 -0.00126702 0
0.0039798 -0.000643374 0
0.00410163 -0.00134999 0
0.00558257 -0.000636114 0
0.00575701 -0.00117813 0
0.004769 -0.000640682 0
0.0049202 -0.00126702 0
0.00636206 -0.000630103 0
0.00655765 -0.00108144 0
0.00558257 -0.000636114 0
0.00575701 -0.00117813 0
0.00705573 -0.00062302 0
0.00726791 -0.000975631 0
0.00636206 -0.000630103 0
0.00655765 -0.00108144 0
0.00757316 -0.000616023 0
0.00779343 -0.000856479 0
0.00705573 -0.00062302 0
0.00726791 -0.000975631 0
0.00785003 -0.000611711 0
0.00807348 -0.000716425 0
0.00757316 -0.000616023 0
0.00779343 -0.000856479 0
0.00775811 -0.000607689 0
0.00798619 -0.00055183 0
0.00785003 -0.000611711 0
0.00807348 -0.000716425 0
0.00724532 -0.000602347 0
0.00746897 -0.000346021 0
0.00775811 -0.000607689 0
0.00798619 -0.00055183 0
0.00614405 -0.000596532 0
0.00635141 -8.94659e-05 0
0.00724532 -0.000602347 0
0.00746897 -0.000346021 0
0.00441533 -0.00059008 0
0.00461139 0.000246309 0
0.00614405 -0.000596532 0
0.00635141 -8.94659e-05 0
0.00186255 -0.000583006 0
0.00204214 0.000656128 0
0.00441533 -0.00059008 0
0.00461139 0.000246309 0
-0.00147857 -0.000574542 0
-0.00132314 0.00116778 0
0.00186255 -0.000583006 0
0.00204214 0.000656128 0
-0.00147857 -0.000574542 0
-0.0058712 -0.000563401 0
-0.00132314 0.00116778 0
-0.00573806 0.0017757 0
-0.0111986 -0.000544101 0
-0.0110912 0.00250071 0
-0.0058712 -0.000563401 0
-0.00573806 0.0017757 0
-0.0178173 -0.000520036 0
-0.0177567 0.00335243 0
-0.0111986 -0.000544101 0
-0.0110912 0.00250071 0
-0.0255639 -0.000485591 0
-0.0255785 0.0043547 0
-0.0178173 -0.000520036 0
-0.0177567 0.00335243 0
-0.034962 -0.00044582 0
-0.0350899 0.00549098 0
-0.0255639 -0.000485591 0
-0.0255785 0.0043547 0
-0.0457362 -0.000402349 0
-0.0460458 0.00678683 0
-0.034962 -0.00044582 0
-0.0350899 0.00549098 0
-0.0457362 -0.000402349 0
-0.0585978 -0.000353332 0
-0.0460458 0.00678683 0
-0.0591597 0.00826183 0
-0.0585978 -0.000353332 0
-0.0731684 -0.000315919 0
-0.0591597 0.00826183 0
-0.0740256 0.00991484 0
-0.0902393 -0.000258445 0
-0.0914715 0.0116348 0
-0.0731684 -0.000315919 0
-0.0740256 0.00991484 0
-0.109254 -0.000229188 0
-0.110873 0.0135715 0
-0.0902393 -0.000258445 0
-0.0914715 0.0116348 0
-0.130826 -0.000159809 0
-0.133029 0.0152342 0
-0.109254 -0.000229188 0
-0.110873 0.0135715 0
-0.153931 -0.000186674 0
-0.15674 0.0166247 0
-0.130826 -0.000159809 0
-0.133029 0.0152342 0
-0.178595 -0.00014859 0
-0.18201 0.0171728 0
-0.153931 -0.000186674 0
-0.15674 0.0166247 0
-0.203552 -0.000201079 0
-0.207329 0.0177396 0
-0.178595 -0.00014859 0
-0.18201 0.0171728 0
-0.228745 -0.000148763 0
-0.232909 0.0181837 0
-0.203552 -0.000201079 0
-0.207329 0.0177396 0
-0.253708 -0.000418056 0
-0.257944 0.0199247 0
-0.228745 -0.000148763 0
-0.232909 0.0181837 0
-0.278634 -2.83286e-05 0
-0.281376 0.0214143 0
-0.253708 -0.000418056 0
-0.257944 0.0199247 0
-0.302076 0.000224136 0
-0.305941 0.0258832 0
-0.278634 -2.83286e-05 0
-0.281376 0.0214143 0
-0.302076 0.000224136 0
-0.326102 0.000946769 0
-0.305941 0.0258832 0
-0.32495 0.0271478 0
-0.326102 0.000946769 0
-0.337638 6.85311e-05 0
-0.32495 0.0271478 0
-0.345065 0.0193823 0
-0.333596 -0.000728069 0
-0.340574 -0.00326389 0
-0.337638 6.85311e-05 0
-0.345065 0.0193823 0
-0.310035 -4.22895e-05 0
-0.305281 -0.0171563 0
-0.333596 -0.000728069 0
-0.340574 -0.00326389 0
0.000141431 -0.000452237 0
0.000185442 -0.00117191 0
5.58934e-05 -0.000470336 0
0.000139012 -0.00117777 0
0.000141431 -0.000452237 0
0.000175796 -0.000421883 0
0.000185442 -0.00117191 0
0.000213687 -0.00117409 0
0.000189743 -0.000425059 0
0.000206063 -0.00112288 0
0.000175796 -0.000421883 0
0.000213687 -0.00117409 0
0.000189743 -0.000425059 0
0.000166382 -0.000415083 0
0.000206063 -0.00112288 0
0.00018023 -0.00109787 0
0.000166382 -0.000415083 0
0.000131255 -0.000420815 0
0.00018023 -0.00109787 0
0.000133048 -0.00105845 0
0.000131255 -0.000420815 0
7.24778e-05 -0.000417006 0
0.000133048 -0.00105845 0
7.84598e-05 -0.0010415 0
7.24778e-05 -0.000417006 0
1.7059e-05 -0.00041933 0
7.84598e-05 -0.0010415 0
1.37822e-05 -0.00102078 0
1.7059e-05 -0.00041933 0
-4.68644e-05 -0.000419008 0
1.37822e-05 -0.00102078 0
-5.23619e-05 -0.00101276 0
-4.68644e-05 -0.000419008 0
-0.000105808 -0.000422229 0
-5.23619e-05 -0.00101276 0
-0.000112365 -0.00100208 0
-0.000105808 -0.000422229 0
-0.000165169 -0.000422909 0
-0.000112365 -0.00100208 0
-0.000168166 -0.000999145 0
-0.000165169 -0.000422909 0
-0.000213844 -0.000424524 0
-0.000168166 -0.000999145 0
-0.000215835 -0.000994698 0
-0.000213844 -0.000424524 0
-0.000258758 -0.000425068 0
-0.000215835 -0.000994698 0
-0.000258198 -0.000994304 0
-0.000258758 -0.000425068 0
-0.000293101 -0.000425664 0
-0.000258198 -0.000994304 0
-0.000290782 -0.000993045 0
-0.000293101 -0.000425664 0
-0.000322811 -0.000425745 0
-0.000290782 -0.000993045 0
-0.000318958 -0.000994114 0
-0.000322811 -0.000425745 0
-0.00034242 -0.000426015 0
-0.000318958 -0.000994114 0
-0.000338831 -0.000995014 0
-0.00034242 -0.000426015 0
-0.000356341 -0.000426106 0
-0.000338831 -0.000995014 0
-0.000356061 -0.000997681 0
-0.000356341 -0.000426106 0
-0.000364533 -0.000426923 0
-0.000356061 -0.000997681 0
-0.000366223 -0.000999747 0
-0.000364533 -0.000426923 0
-0.000371258 -0.00042779 0
-0.000366223 -0.000999747 0
-0.000372278 -0.00100299 0
-0.000371258 -0.00042779 0
-0.000372202 -0.000428812 0
-0.000372278 -0.00100299 0
-0.000372407 -0.00100634 0
-0.000372202 -0.000428812 0
-0.000372596 -0.000429597 0
-0.000372407 -0.00100634 0
-0.00037122 -0.00101009 0
-0.000372596 -0.000429597 0
-0.000366808 -0.000429962 0
-0.00037122 -0.00101009 0
-0.000365074 -0.00101385 0
-0.000366808 -0.000429962 0
-0.000359746 -0.00043048 0
-0.000365074 -0.00101385 0
-0.000358181 -0.00101713 0
-0.000359746 -0.00043048 0
-0.000347617 -0.000430562 0
-0.000358181 -0.00101713 0
-0.000346499 -0.00101945 0
-0.000347617 -0.000430562 0
-0.000337047 -0.000430517 0
-0.000346499 -0.00101945 0
-0.000336852 -0.00102053 0
0.233516 -0.22692 0
0.152053 -0.147745 0
0.256657 -0.106942 0
0.173492 -0.0966432 0
0.152053 -0.147745 0
0.11057 -0.109887 0
0.173492 -0.0966432 0
0.125879 -0.0815822 0
0.0867023 -0.0863618 0
0.0965344 -0.0685392 0
0.11057 -0.109887 0
0.125879 -0.0815822 0
0.0703515 -0.0703379 0
0.0770958 -0.0581776 0
0.0867023 -0.0863618 0
0.0965344 -0.0685392 0
0.0703515 -0.0703379 0
0.0589205 -0.0590533 0
0.0770958 -0.0581776 0
0.0634975 -0.0502974 0
0.0589205 -0.0590533 0
0.0503949 -0.0506195 0
0.0634975 -0.0502974 0
0.0536488 -0.044065 0
0.0503949 -0.0506195 0
0.0439671 -0.0442547 0
0.0536488 -0.044065 0
0.046263 -0.0391665 0
0.0439671 -0.0442547 0
0.0389539 -0.0392778 0
0.046263 -0.0391665 0
0.040601 -0.0352253 0
0.0389539 -0.0392778 0
0.034964 -0.0353172 0
0.040601 -0.0352253 0
0.0361315 -0.0319821 0
0.034964 -0.0353172 0
0.0317065 -0.0320754 0
0.0361315 -0.0319821 0
0.032528 -0.0292853 0
0.0317065 -0.0320754 0
0.0289561 -0.0293406 0
0.032528 -0.0292853 0
0.0295068 -0.0269512 0
0.0265856 -0.0269708 0
0.0269293 -0.0249073 0
0.0289561 -0.0293406 0
0.0295068 -0.0269512 0
0.0244356 -0.0248229 0
0.0245856 -0.0230148 0
0.0265856 -0.0269708 0
0.0269293 -0.0249073 0
0.0244356 -0.0248229 0
0.0224733 -0.0228693 0
0.0245856 -0.0230148 0
0.0224677 -0.0212494 0
0.0205611 -0.020978 0
0.0204307 -0.0195161 0
0.0224733 -0.0228693 0
0.0224677 -0.0212494 0
0.0187377 -0.0191846 0
0.018541 -0.0178418 0
0.0205611 -0.020978 0
0.0204307 -0.0195161 0
0.0187377 -0.0191846 0
0.0168725 -0.017332 0
0.018541 -0.0178418 0
0.0165985 -0.0161421 0
0.0151168 -0.0155745 0
0.0147248 -0.0145145 0
0.0168725 -0.017332 0
0.0165985 -0.0161421 0
0.0151168 -0.0155745 0
0.0132976 -0.0137661 0
0.0147248 -0.0145145 0
0.0127959 -0.0127452 0
0.0132976 -0.0137661 0
0.0115227 -0.0119974 0
0.0127959 -0.0127452 0
0.0110154 -0.0110612 0
0.0115227 -0.0119974 0
0.00959214 -0.010063 0
0.0110154 -0.0110612 0
0.00915141 -0.00901744 0
0.00959214 -0.010063 0
0.00745163 -0.00781719 0
0.00915141 -0.00901744 0
0.00755072 -0.00728868 0
0.00745163 -0.00781719 0
0.00510804 -0.00548403 0
0.00755072 -0.00728868 0
0.00570936 -0.00469501 0
0.00510804 -0.00548403 0
0.00227337 -0.00139492 0
0.00570936 -0.00469501 0
0.0046244 -0.00341009 0
0.00227337 -0.00139492 0
0.0045354 -0.000249748 0
0.0046244 -0.00341009 0
0.00472036 -0.00259566 0
0.0045354 -0.000249748 0
0.00389407 -0.000434249 0
0.00472036 -0.00259566 0
0.00374236 -0.00203832 0
0.00389407 -0.000434249 0
0.00297812 -0.000481736 0
0.00374236 -0.00203832 0
0.00300565 -0.00173525 0
0.00297812 -0.000481736 0
0.00128952 -0.000394701 0
0.00300565 -0.00173525 0
0.00147019 -0.00163938 0
-0.000346499 -0.00101945 0
-0.000336852 -0.00102053 0
-0.00034632 -0.00077819 0
-0.000337923 -0.000782016 0
-0.00034632 -0.00077819 0
-0.000337923 -0.000782016 0
-0.000350407 -0.0012554 0
-0.000343217 -0.00125872 0
-0.000350407 -0.0012554 0
-0.000343217 -0.00125872 0
-0.000358316 -0.0011037 0
-0.000351274 -0.00110845 0
-0.000358316 -0.0011037 0
-0.000351274 -0.00110845 0
-0.000368133 -0.00148414 0
-0.000363721 -0.00148997 0
-0.000368133 -0.00148414 0
-0.000363721 -0.00148997 0
-0.000381603 -0.00139101 0
-0.000377112 -0.00139722 0
-0.000381603 -0.00139101 0
-0.000377112 -0.00139722 0
-0.000395356 -0.00168759 0
-0.000392674 -0.00169489 0
-0.000412977 -0.00163282 0
-0.000395356 -0.00168759 0
-0.000410318 -0.00164077 0
-0.000392674 -0.00169489 0
-0.000412977 -0.00163282 0
-0.000410318 -0.00164077 0
-0.000432384 -0.0018583 0
-0.00043051 -0.00186709 0
-0.000432384 -0.0018583 0
-0.00043051 -0.00186709 0
-0.00045598 -0.00182944 0
-0.000454415 -0.00183971 0
-0.00045598 -0.00182944 0
-0.000454415 -0.00183971 0
-0.000483956 -0.00199493 0
-0.000483542 -0.00200638 0
-0.000483956 -0.00199493 0
-0.000483542 -0.00200638 0
-0.000517289 -0.0019839 0
-0.000518634 -0.00199765 0
-0.000517289 -0.0019839 0
-0.000518634 -0.00199765 0
-0.000557924 -0.00209525 0
-0.000564318 -0.00211123 0
-0.000557924 -0.00209525 0
-0.000564318 -0.00211123 0
-0.000605005 -0.00209246 0
-0.000618905 -0.00211082 0
-0.000605005 -0.00209246 0
-0.000618905 -0.00211082 0
-0.000659179 -0.0021458 0
-0.000685926 -0.00216649 0
-0.000659179 -0.0021458 0
-0.000685926 -0.00216649 0
-0.000715269 -0.0021368 0
-0.000759381 -0.00215798 0
-0.000715269 -0.0021368 0
-0.000759381 -0.00215798 0
-0.000767654 -0.00211952 0
-0.000832972 -0.00213896 0
-0.000767654 -0.00211952 0
-0.000832972 -0.00213896 0
-0.000803982 -0.00209304 0
-0.000890117 -0.00210608 0
-0.000803982 -0.00209304 0
-0.000890117 -0.00210608 0
-0.000813474 -0.00200125 0
-0.000912825 -0.00200393 0
-0.000813474 -0.00200125 0
-0.000912825 -0.00200393 0
-0.000788181 -0.00197718 0
-0.000885742 -0.00196687 0
-0.000788181 -0.00197718 0
-0.000885742 -0.00196687 0
-0.000730717 -0.00183916 0
-0.000811896 -0.00182028 0
-0.000730717 -0.00183916 0
-0.000811896 -0.00182028 0
-0.000653037 -0.00186832 0
-0.00071121 -0.00184479 0
-0.000653037 -0.00186832 0
-0.00071121 -0.00184479 0
-0.000567545 -0.00170601 0
-0.000602813 -0.00168383 0
-0.000567545 -0.00170601 0
-0.000602813 -0.00168383 0
-0.000489851 -0.00181719 0
-0.000505833 -0.0017973 0
-0.000489851 -0.00181719 0
-0.000505833 -0.0017973 0
-0.000418251 -0.00160633 0
-0.000420524 -0.00159282 0
-0.000418251 -0.00160633 0
-0.000420524 -0.00159282 0
-0.000368813 -0.0018047 0
-0.000364156 -0.00179314 0
-0.000368813 -0.0018047 0
-0.000364156 -0.00179314 0
-0.000319183 -0.00149398 0
-0.000308036 -0.00148541 0
-0.000319183 -0.00149398 0
-0.000308036 -0.00148541 0
-0.000285999 -0.00180568 0
-0.000273554 -0.00179904 0
-0.000285999 -0.00180568 0
-0.000273554 -0.00179904 0
-0.000250751 -0.00132417 0
-0.000234152 -0.00132087 0
-0.000250751 -0.00132417 0
-0.000234152 -0.00132087 0
-0.000241485 -0.00179852 0
-0.000224593 -0.00179868 0
-0.000241485 -0.00179852 0
-0.000224593 -0.00179868 0
-0.000234042 -0.00105246 0
-0.000216533 -0.00105203 0
-0.000234042 -0.00105246 0
-0.000216533 -0.00105203 0
-0.0002363 -0.0017865 0
-0.000217341 -0.00178767 0
0.256657 -0.106942 0
0.173492 -0.0966432 0
0.217175 -0.013172 0
0.165176 -0.037953 0
0.173492 -0.0966432 0
0.125879 -0.0815822 0
0.165176 -0.037953 0
0.125345 -0.0444411 0
0.0965344 -0.0685392 0
0.0982079 -0.0440901 0
0.125879 -0.0815822 0
0.125345 -0.0444411 0
0.0770958 -0.0581776 0
0.0791773 -0.0413397 0
0.0965344 -0.0685392 0
0.0982079 -0.0440901 0
0.0770958 -0.0581776 0
0.0634975 -0.0502974 0
0.0791773 -0.0413397 0
0.0654202 -0.0379971 0
0.0634975 -0.0502974 0
0.0536488 -0.044065 0
0.0654202 -0.0379971 0
0.0552757 -0.034805 0
0.0536488 -0.044065 0
0.046263 -0.0391665 0
0.0552757 -0.034805 0
0.0475931 -0.0318906 0
0.046263 -0.0391665 0
0.040601 -0.0352253 0
0.0475931 -0.0318906 0
0.0416702 -0.0293366 0
0.040601 -0.0352253 0
0.0361315 -0.0319821 0
0.0416702 -0.0293366 0
0.0369933 -0.0270797 0
0.0361315 -0.0319821 0
0.032528 -0.0292853 0
0.0369933 -0.0270797 0
0.0331811 -0.0251116 0
0.032528 -0.0292853 0
0.0295068 -0.0269512 0
0.0331811 -0.0251116 0
0.0300141 -0.0233423 0
0.0269293 -0.0249073 0
0.0272983 -0.0216957 0
0.0295068 -0.0269512 0
0.0300141 -0.0233423 0
0.0245856 -0.0230148 0
0.0248919 -0.0201375 0
0.0269293 -0.0249073 0
0.0272983 -0.0216957 0
0.0245856 -0.0230148 0
0.0224677 -0.0212494 0
0.0248919 -0.0201375 0
0.0226908 -0.0186261 0
0.0204307 -0.0195161 0
0.0205344 -0.0171877 0
0.0224677 -0.0212494 0
0.0226908 -0.0186261 0
0.018541 -0.0178418 0
0.0185276 -0.0157264 0
0.0204307 -0.0195161 0
0.0205344 -0.0171877 0
0.018541 -0.0178418 0
0.0165985 -0.0161421 0
0.0185276 -0.0157264 0
0.0164439 -0.0141594 0
0.0147248 -0.0145145 0
0.0144769 -0.0125787 0
0.0165985 -0.0161421 0
0.0164439 -0.0141594 0
0.0147248 -0.0145145 0
0.0127959 -0.0127452 0
0.0144769 -0.0125787 0
0.0123863 -0.0110766 0
0.0127959 -0.0127452 0
0.0110154 -0.0110612 0
0.0123863 -0.0110766 0
0.010681 -0.00939423 0
0.0110154 -0.0110612 0
0.00915141 -0.00901744 0
0.010681 -0.00939423 0
0.00861284 -0.00764591 0
0.00915141 -0.00901744 0
0.00755072 -0.00728868 0
0.00861284 -0.00764591 0
0.00728492 -0.00578831 0
0.00573267 -0.00329434 0
0.00472036 -0.00259566 0
0.00448724 -0.00310556 0
0.00374236 -0.00203832 0
0.00448724 -0.00310556 0
0.00374236 -0.00203832 0
0.00329846 -0.00255733 0
0.00300565 -0.00173525 0
0.00329846 -0.00255733 0
0.00300565 -0.00173525 0
0.00139636 -0.00189198 0
0.00147019 -0.00163938 0
0.00385244 -0.00359869 0
0.00329846 -0.00255733 0
0.00183931 -0.0027933 0
0.00139636 -0.00189198 0
0.00428305 -0.00334092 0
0.00385244 -0.00359869 0
0.00208756 -0.00259619 0
0.00183931 -0.0027933 0
0.00494455 -0.00342216 0
0.00428305 -0.00334092 0
0.00264404 -0.00269852 0
0.00208756 -0.00259619 0
0.00604447 -0.00291163 0
0.00494455 -0.00342216 0
0.0032458 -0.00141319 0
0.00264404 -0.00269852 0
0.00774322 -0.00294421 0
0.00604447 -0.00291163 0
0.00605643 -0.000254333 0
0.0032458 -0.00141319 0
0.00941962 -0.00335927 0
0.00774322 -0.00294421 0
0.00871354 -0.00158321 0
0.00605643 -0.000254333 0
0.00941962 -0.00335927 0
0.00871354 -0.00158321 0
0.0107845 -0.00409796 0
0.00987185 -0.00336088 0
0.00871354 -0.00158321 0
0.00986957 -0.000947251 0
0.00987185 -0.00336088 0
0.00973062 -0.00280164 0
0.00808134 -0.0037811 0
0.00869076 -0.00230694 0
0.00986957 -0.000947251 0
0.00973062 -0.00280164 0
0.00785771 -0.000828557 0
0.00762648 -0.00261147 0