# vtk DataFile Version 3.0
#This file was generated by the deal.II library on 2016/12/20 at 10:56:56
ASCII
DATASET UNSTRUCTURED_GRID

POINTS 7372 double
-1 0.5 0
-0.978723 0.478723 0
-0.970149 0.5 0
-0.964976 0.485465 0
0.12 -0.5 0
0.15 -0.5 0
0.119014 -0.4708 0
0.15 -0.471429 0
0.11755 -0.441479 0
0.119014 -0.4708 0
0.15 -0.442857 0
0.15 -0.471429 0
0.117242 -0.412206 0
0.11755 -0.441479 0
0.15 -0.414286 0
0.15 -0.442857 0
0.118129 -0.383064 0
0.117242 -0.412206 0
0.15 -0.385714 0
0.15 -0.414286 0
0.12021 -0.354337 0
0.118129 -0.383064 0
0.15 -0.357143 0
0.15 -0.385714 0
0.121793 -0.32584 0
0.12021 -0.354337 0
0.15 -0.328571 0
0.15 -0.357143 0
0.122717 -0.296869 0
0.121793 -0.32584 0
0.15 -0.3 0
0.15 -0.328571 0
0.123759 -0.266752 0
0.122717 -0.296869 0
0.153091 -0.267708 0
0.15 -0.3 0
0.18456 -0.26795 0
0.153091 -0.267708 0
0.183333 -0.3 0
0.15 -0.3 0
0.216606 -0.268111 0
0.18456 -0.26795 0
0.216667 -0.3 0
0.183333 -0.3 0
0.24835 -0.26841 0
0.216606 -0.268111 0
0.25 -0.3 0
0.216667 -0.3 0
0.278782 -0.268564 0
0.24835 -0.26841 0
0.279437 -0.298917 0
0.25 -0.3 0
0.279638 -0.328111 0
0.279437 -0.298917 0
0.25 -0.328571 0
0.25 -0.3 0
0.27971 -0.356801 0
0.279638 -0.328111 0
0.25 -0.357143 0
0.25 -0.328571 0
0.279677 -0.385395 0
0.27971 -0.356801 0
0.25 -0.385714 0
0.25 -0.357143 0
0.279641 -0.413938 0
0.279677 -0.385395 0
0.25 -0.414286 0
0.25 -0.385714 0
0.279666 -0.442534 0
0.279641 -0.413938 0
0.25 -0.442857 0
0.25 -0.414286 0
0.279811 -0.471266 0
0.279666 -0.442534 0
0.25 -0.471429 0
0.25 -0.442857 0
0.28 -0.5 0
0.279811 -0.471266 0
0.25 -0.5 0
0.25 -0.471429 0
0.970149 0.5 0
0.970096 0.46978 0
1 0.5 0
1 0.469697 0
0.940299 0.5 0
0.940231 0.46984 0
0.970149 0.5 0
0.970096 0.46978 0
0.910448 0.5 0
0.910371 0.469856 0
0.940299 0.5 0
0.940231 0.46984 0
0.880597 0.5 0
0.880527 0.469909 0
0.910448 0.5 0
0.910371 0.469856 0
0.850746 0.5 0
0.850684 0.469926 0
0.880597 0.5 0
0.880527 0.469909 0
0.820896 0.5 0
0.820842 0.469978 0
0.850746 0.5 0
0.850684 0.469926 0
0.791045 0.5 0
0.791001 0.470016 0
0.820896 0.5 0
0.820842 0.469978 0
0.761194 0.5 0
0.761159 0.470055 0
0.791045 0.5 0
0.791001 0.470016 0
0.731343 0.5 0
0.731316 0.470091 0
0.761194 0.5 0
0.761159 0.470055 0
0.701493 0.5 0
0.701472 0.470118 0
0.731343 0.5 0
0.731316 0.470091 0
0.671642 0.5 0
0.671627 0.470134 0
0.701493 0.5 0
0.701472 0.470118 0
0.641791 0.5 0
0.64178 0.470142 0
0.671642 0.5 0
0.671627 0.470134 0
0.641791 0.5 0
0.61194 0.5 0
0.64178 0.470142 0
0.611934 0.470065 0
0.58209 0.5 0
0.582089 0.470002 0
0.61194 0.5 0
0.611934 0.470065 0
0.552239 0.5 0
0.552248 0.469853 0
0.58209 0.5 0
0.582089 0.470002 0
0.522388 0.5 0
0.522413 0.469718 0
0.552239 0.5 0
0.552248 0.469853 0
0.492537 0.5 0
0.492577 0.469656 0
0.522388 0.5 0
0.522413 0.469718 0
0.462687 0.5 0
0.462743 0.469571 0
0.492537 0.5 0
0.492577 0.469656 0
0.432836 0.5 0
0.432895 0.46963 0
0.462687 0.5 0
0.462743 0.469571 0
0.402985 0.5 0
0.403046 0.469669 0
0.432836 0.5 0
0.432895 0.46963 0
0.373134 0.5 0
0.373191 0.469745 0
0.402985 0.5 0
0.403046 0.469669 0
0.343284 0.5 0
0.343335 0.469723 0
0.373134 0.5 0
0.373191 0.469745 0
0.313433 0.5 0
0.313478 0.469741 0
0.343284 0.5 0
0.343335 0.469723 0
0.283582 0.5 0
0.283622 0.469783 0
0.313433 0.5 0
0.313478 0.469741 0
0.253731 0.5 0
0.253768 0.469742 0
0.283582 0.5 0
0.283622 0.469783 0
0.223881 0.5 0
0.223918 0.469737 0
0.253731 0.5 0
0.253768 0.469742 0
0.19403 0.5 0
0.194064 0.46981 0
0.223881 0.5 0
0.223918 0.469737 0
0.164179 0.5 0
0.16421 0.469881 0
0.19403 0.5 0
0.194064 0.46981 0
0.134328 0.5 0
0.134355 0.46994 0
0.164179 0.5 0
0.16421 0.469881 0
0.104478 0.5 0
0.1045 0.469997 0
0.134328 0.5 0
0.134355 0.46994 0
0.074627 0.5 0
0.074645 0.470051 0
0.104478 0.5 0
0.1045 0.469997 0
0.044776 0.5 0
0.04479 0.470093 0
0.074627 0.5 0
0.074645 0.470051 0
0.014925 0.5 0
0.014935 0.47012 0
0.044776 0.5 0
0.04479 0.470093 0
-0.014925 0.5 0
-0.014918 0.470135 0
0.014925 0.5 0
0.014935 0.47012 0
-0.044776 0.5 0
-0.044771 0.470143 0
-0.014925 0.5 0
-0.014918 0.470135 0
-0.074627 0.5 0
-0.074623 0.470146 0
-0.044776 0.5 0
-0.044771 0.470143 0
-0.104478 0.5 0
-0.104496 0.469979 0
-0.074627 0.5 0
-0.074623 0.470146 0
-0.134328 0.5 0
-0.134359 0.469935 0
-0.104478 0.5 0
-0.104496 0.469979 0
-0.164179 0.5 0
-0.164225 0.469839 0
-0.134328 0.5 0
-0.134359 0.469935 0
-0.164179 0.5 0
-0.19403 0.5 0
-0.164225 0.469839 0
-0.194083 0.469797 0
-0.223881 0.5 0
-0.22394 0.469753 0
-0.19403 0.5 0
-0.194083 0.469797 0
-0.253731 0.5 0
-0.253798 0.469819 0
-0.223881 0.5 0
-0.22394 0.469753 0
-0.283582 0.5 0
-0.283647 0.470019 0
-0.253731 0.5 0
-0.253798 0.469819 0
-0.313433 0.5 0
-0.313491 0.470151 0
-0.283582 0.5 0
-0.283647 0.470019 0
-0.343284 0.5 0
-0.343348 0.470381 0
-0.313433 0.5 0
-0.313491 0.470151 0
-0.343284 0.5 0
-0.373134 0.5 0
-0.343348 0.470381 0
-0.373195 0.470395 0
-0.373134 0.5 0
-0.402985 0.5 0
-0.373195 0.470395 0
-0.403049 0.470404 0
-0.432836 0.5 0
-0.432937 0.470297 0
-0.402985 0.5 0
-0.403049 0.470404 0
-0.462687 0.5 0
-0.462848 0.469995 0
-0.432836 0.5 0
-0.432937 0.470297 0
-0.492537 0.5 0
-0.492807 0.469765 0
-0.462687 0.5 0
-0.462848 0.469995 0
-0.522388 0.5 0
-0.52276 0.46958 0
-0.492537 0.5 0
-0.492807 0.469765 0
-0.552239 0.5 0
-0.55273 0.469652 0
-0.522388 0.5 0
-0.52276 0.46958 0
-0.58209 0.5 0
-0.582662 0.469731 0
-0.552239 0.5 0
-0.55273 0.469652 0
-0.61194 0.5 0
-0.612594 0.469999 0
-0.58209 0.5 0
-0.582662 0.469731 0
-0.641791 0.5 0
-0.642647 0.470419 0
-0.61194 0.5 0
-0.612594 0.469999 0
-0.671642 0.5 0
-0.672638 0.470543 0
-0.641791 0.5 0
-0.642647 0.470419 0
-0.701493 0.5 0
-0.702968 0.4698 0
-0.671642 0.5 0
-0.672638 0.470543 0
-0.701493 0.5 0
-0.731343 0.5 0
-0.702968 0.4698 0
-0.733232 0.468149 0
-0.820896 0.5 0
-0.822797 0.47207 0
-0.791045 0.5 0
-0.795702 0.469563 0
0.31 -0.5 0
0.309694 -0.471123 0
0.28 -0.5 0
0.279811 -0.471266 0
0.31 -0.5 0
0.34 -0.5 0
0.309694 -0.471123 0
0.339686 -0.471033 0
0.37 -0.5 0
0.369721 -0.471055 0
0.34 -0.5 0
0.339686 -0.471033 0
0.37 -0.5 0
0.4 -0.5 0
0.369721 -0.471055 0
0.399756 -0.470957 0
0.4 -0.5 0
0.43 -0.5 0
0.399756 -0.470957 0
0.429805 -0.470822 0
0.43 -0.5 0
0.46 -0.5 0
0.429805 -0.470822 0
0.459835 -0.470712 0
0.46 -0.5 0
0.49 -0.5 0
0.459835 -0.470712 0
0.489873 -0.470554 0
0.49 -0.5 0
0.52 -0.5 0
0.489873 -0.470554 0
0.519906 -0.470379 0
0.52 -0.5 0
0.55 -0.5 0
0.519906 -0.470379 0
0.54993 -0.470248 0
0.55 -0.5 0
0.58 -0.5 0
0.54993 -0.470248 0
0.579948 -0.470155 0
0.58 -0.5 0
0.61 -0.5 0
0.579948 -0.470155 0
0.609962 -0.470091 0
0.61 -0.5 0
0.64 -0.5 0
0.609962 -0.470091 0
0.639972 -0.47005 0
0.64 -0.5 0
0.67 -0.5 0
0.639972 -0.47005 0
0.66998 -0.470026 0
0.67 -0.5 0
0.7 -0.5 0
0.66998 -0.470026 0
0.699986 -0.470013 0
0.7 -0.5 0
0.73 -0.5 0
0.699986 -0.470013 0
0.72999 -0.470006 0
0.73 -0.5 0
0.76 -0.5 0
0.72999 -0.470006 0
0.759994 -0.470003 0
0.76 -0.5 0
0.79 -0.5 0
0.759994 -0.470003 0
0.78998 -0.469916 0
0.79 -0.5 0
0.82 -0.5 0
0.78998 -0.469916 0
0.819956 -0.469877 0
0.82 -0.5 0
0.85 -0.5 0
0.819956 -0.469877 0
0.849929 -0.469833 0
0.85 -0.5 0
0.88 -0.5 0
0.849929 -0.469833 0
0.879924 -0.469805 0
0.88 -0.5 0
0.91 -0.5 0
0.879924 -0.469805 0
0.909913 -0.469792 0
0.91 -0.5 0
0.94 -0.5 0
0.909913 -0.469792 0
0.939922 -0.469775 0
0.94 -0.5 0
0.97 -0.5 0
0.939922 -0.469775 0
0.969956 -0.46974 0
0.97 -0.5 0
1 -0.5 0
0.969956 -0.46974 0
1 -0.469697 0
-0.617021 0.117021 0
-0.595745 0.095745 0
-0.595665 0.139192 0
-0.574431 0.117764 0
-0.595745 0.095745 0
-0.574468 0.074468 0
-0.574431 0.117764 0
-0.553204 0.096309 0
-0.553191 0.053191 0
-0.53184 0.075023 0
-0.574468 0.074468 0
-0.553204 0.096309 0
-0.553191 0.053191 0
-0.531915 0.031915 0
-0.53184 0.075023 0
-0.510492 0.053733 0
-0.531915 0.031915 0
-0.510638 0.010638 0
-0.510492 0.053733 0
-0.489127 0.032461 0
-0.510638 0.010638 0
-0.489362 -0.010638 0
-0.489127 0.032461 0
-0.467791 0.011178 0
-0.489362 -0.010638 0
-0.468085 -0.031915 0
-0.467791 0.011178 0
-0.446536 -0.010172 0
-0.446809 -0.053191 0
-0.42524 -0.031466 0
-0.468085 -0.031915 0
-0.446536 -0.010172 0
-0.425532 -0.074468 0
-0.404012 -0.052824 0
-0.446809 -0.053191 0
-0.42524 -0.031466 0
-0.425532 -0.074468 0
-0.404255 -0.095745 0
-0.404012 -0.052824 0
-0.382783 -0.074175 0
-0.404255 -0.095745 0
-0.382979 -0.117021 0
-0.382783 -0.074175 0
-0.361545 -0.095511 0
-0.382979 -0.117021 0
-0.361702 -0.138298 0
-0.361545 -0.095511 0
-0.340288 -0.116831 0
-0.361702 -0.138298 0
-0.340426 -0.159574 0
-0.340288 -0.116831 0
-0.319034 -0.138159 0
-0.340426 -0.159574 0
-0.319149 -0.180851 0
-0.319034 -0.138159 0
-0.297766 -0.159484 0
-0.319149 -0.180851 0
-0.297872 -0.202128 0
-0.297766 -0.159484 0
-0.276489 -0.180797 0
-0.297872 -0.202128 0
-0.276596 -0.223404 0
-0.276489 -0.180797 0
-0.255087 -0.202105 0
-0.255319 -0.244681 0
-0.233674 -0.223466 0
-0.276596 -0.223404 0
-0.255087 -0.202105 0
-0.234043 -0.265957 0
-0.212119 -0.244916 0
-0.255319 -0.244681 0
-0.233674 -0.223466 0
-0.234043 -0.265957 0
-0.212766 -0.287234 0
-0.212119 -0.244916 0
-0.190657 -0.266392 0
-0.191489 -0.308511 0
-0.169261 -0.287934 0
-0.212766 -0.287234 0
-0.190657 -0.266392 0
-0.170213 -0.329787 0
-0.147854 -0.309624 0
-0.191489 -0.308511 0
-0.169261 -0.287934 0
-0.170213 -0.329787 0
-0.148936 -0.351064 0
-0.147854 -0.309624 0
-0.126431 -0.331364 0
-0.12766 -0.37234 0
-0.105256 -0.353368 0
-0.148936 -0.351064 0
-0.126431 -0.331364 0
-0.12766 -0.37234 0
-0.106383 -0.393617 0
-0.105256 -0.353368 0
-0.083924 -0.375263 0
-0.106383 -0.393617 0
-0.085106 -0.414894 0
-0.083924 -0.375263 0
-0.062097 -0.396824 0
-0.085106 -0.414894 0
-0.06383 -0.43617 0
-0.062097 -0.396824 0
-0.040132 -0.418076 0
-0.06383 -0.43617 0
-0.042553 -0.457447 0
-0.040132 -0.418076 0
-0.019646 -0.439891 0
-0.042553 -0.457447 0
-0.021277 -0.478723 0
-0.019646 -0.439891 0
-0.002475 -0.461393 0
-0.021277 -0.478723 0
0 -0.5 0
-0.002475 -0.461393 0
0.009599 -0.478226 0
0 -0.5 0
0.03 -0.5 0
0.009599 -0.478226 0
0.029922 -0.474701 0
0.03 -0.5 0
0.06 -0.5 0
0.029922 -0.474701 0
0.057397 -0.471689 0
0.06 -0.5 0
0.09 -0.5 0
0.057397 -0.471689 0
[...]
POINT_DATA 7372
VECTORS momentum double
-0.000943069 0.000164694 0
-0.00721461 0.00632004 0
-0.00587194 -0.000187559 0
-0.00873508 0.00530913 0
3.20235e-06 -0.000404679 0
7.53678e-05 -0.00041002 0
5.31074e-05 -0.000924148 0
6.52592e-05 -0.000874802 0
-0.00014153 -0.000597363 0
5.31074e-05 -0.000924148 0
7.89051e-05 -0.000634313 0
6.52592e-05 -0.000874802 0
-1.72156e-06 -0.00106514 0
-0.00014153 -0.000597363 0
-1.23221e-06 -0.00115579 0
7.89051e-05 -0.000634313 0
9.1968e-05 -0.000806179 0
-1.72156e-06 -0.00106514 0
-6.64183e-06 -0.000924381 0
-1.23221e-06 -0.00115579 0
0.000113451 -0.00117352 0
9.1968e-05 -0.000806179 0
-4.34007e-05 -0.0011469 0
-6.64183e-06 -0.000924381 0
0.00029886 -0.000943055 0
0.000113451 -0.00117352 0
2.39508e-05 -0.000910885 0
-4.34007e-05 -0.0011469 0
8.55846e-05 -0.00152013 0
0.00029886 -0.000943055 0
-4.27744e-05 -0.000676808 0
2.39508e-05 -0.000910885 0
-0.000377721 -0.001072 0
8.55846e-05 -0.00152013 0
-0.000674712 -0.0011429 0
-4.27744e-05 -0.000676808 0
-0.000284349 -0.00143334 0
-0.000674712 -0.0011429 0
-1.9595e-05 -0.000436329 0
-4.27744e-05 -0.000676808 0
-8.62206e-05 -0.00147363 0
-0.000284349 -0.00143334 0
-0.000338471 -0.000465539 0
-1.9595e-05 -0.000436329 0
0.000205467 -0.00104763 0
-8.62206e-05 -0.00147363 0
-9.41387e-05 -0.000610908 0
-0.000338471 -0.000465539 0
6.87346e-05 -0.000811007 0
0.000205467 -0.00104763 0
-0.000145998 -0.00119235 0
-9.41387e-05 -0.000610908 0
-8.78281e-05 -0.000665397 0
-0.000145998 -0.00119235 0
-2.71131e-05 -0.000627276 0
-9.41387e-05 -0.000610908 0
-1.70954e-05 -0.000937732 0
-8.78281e-05 -0.000665397 0
7.73201e-07 -0.000902332 0
-2.71131e-05 -0.000627276 0
-1.18091e-06 -0.000551338 0
-1.70954e-05 -0.000937732 0
-5.98387e-06 -0.000565268 0
7.73201e-07 -0.000902332 0
-1.67866e-05 -0.00087763 0
-1.18091e-06 -0.000551338 0
8.58943e-07 -0.000868737 0
-5.98387e-06 -0.000565268 0
-5.06483e-06 -0.000463418 0
-1.67866e-05 -0.00087763 0
-1.71357e-06 -0.000465865 0
8.58943e-07 -0.000868737 0
-2.32872e-05 -0.000867111 0
-5.06483e-06 -0.000463418 0
-1.10426e-06 -0.000864294 0
-1.71357e-06 -0.000465865 0
3.33722e-07 -0.000385275 0
-2.32872e-05 -0.000867111 0
5.68444e-07 -0.000384371 0
-1.10426e-06 -0.000864294 0
-6.42579e-05 -0.00065504 0
-5.43752e-05 -0.0017039 0
-6.04978e-05 -0.000655203 0
-4.77254e-05 -0.00170348 0
-6.47601e-05 -0.000655598 0
-5.81334e-05 -0.00170667 0
-6.42579e-05 -0.00065504 0
-5.43752e-05 -0.0017039 0
-6.25393e-05 -0.000655219 0
-5.5516e-05 -0.00170924 0
-6.47601e-05 -0.000655598 0
-5.81334e-05 -0.00170667 0
-5.87847e-05 -0.000654328 0
-5.21413e-05 -0.00171126 0
-6.25393e-05 -0.000655219 0
-5.5516e-05 -0.00170924 0
-5.25884e-05 -0.000653629 0
-4.48975e-05 -0.00171349 0
-5.87847e-05 -0.000654328 0
-5.21413e-05 -0.00171126 0
-4.46611e-05 -0.000652193 0
-3.6395e-05 -0.00171555 0
-5.25884e-05 -0.000653629 0
-4.48975e-05 -0.00171349 0
-3.33265e-05 -0.000651427 0
-2.5352e-05 -0.00171771 0
-4.46611e-05 -0.000652193 0
-3.6395e-05 -0.00171555 0
-2.08312e-05 -0.000649835 0
-1.24775e-05 -0.00172061 0
-3.33265e-05 -0.000651427 0
-2.5352e-05 -0.00171771 0
-4.76886e-06 -0.000648566 0
9.18346e-07 -0.00172367 0
-2.08312e-05 -0.000649835 0
-1.24775e-05 -0.00172061 0
1.21537e-05 -0.000647749 0
1.61637e-05 -0.00172738 0
-4.76886e-06 -0.000648566 0
9.18346e-07 -0.00172367 0
3.19452e-05 -0.000646487 0
3.16362e-05 -0.0017309 0
1.21537e-05 -0.000647749 0
1.61637e-05 -0.00172738 0
5.26771e-05 -0.000645734 0
4.31728e-05 -0.00173573 0
3.19452e-05 -0.000646487 0
3.16362e-05 -0.0017309 0
5.26771e-05 -0.000645734 0
6.98178e-05 -0.000646319 0
4.31728e-05 -0.00173573 0
5.49848e-05 -0.0017412 0
8.52326e-05 -0.000646658 0
6.28238e-05 -0.00174857 0
6.98178e-05 -0.000646319 0
5.49848e-05 -0.0017412 0
9.5251e-05 -0.000649355 0
6.85782e-05 -0.00175497 0
8.52326e-05 -0.000646658 0
6.28238e-05 -0.00174857 0
9.59475e-05 -0.000652033 0
7.6402e-05 -0.00175896 0
9.5251e-05 -0.000649355 0
6.85782e-05 -0.00175497 0
9.66583e-05 -0.000653264 0
8.11253e-05 -0.00175959 0
9.59475e-05 -0.000652033 0
7.6402e-05 -0.00175896 0
8.64036e-05 -0.00065529 0
7.94877e-05 -0.00175871 0
9.66583e-05 -0.000653264 0
8.11253e-05 -0.00175959 0
6.79017e-05 -0.000655925 0
7.25942e-05 -0.00175702 0
8.64036e-05 -0.00065529 0
7.94877e-05 -0.00175871 0
4.80538e-05 -0.000655042 0
5.87208e-05 -0.00175516 0
6.79017e-05 -0.000655925 0
7.25942e-05 -0.00175702 0
3.23097e-05 -0.000653309 0
4.00652e-05 -0.00175598 0
4.80538e-05 -0.000655042 0
5.87208e-05 -0.00175516 0
1.71525e-05 -0.000653439 0
1.98834e-05 -0.00175655 0
3.23097e-05 -0.000653309 0
4.00652e-05 -0.00175598 0
1.34887e-06 -0.000653304 0
5.0366e-06 -0.00176136 0
1.71525e-05 -0.000653439 0
1.98834e-05 -0.00175655 0
-1.24664e-05 -0.000653524 0
-1.39181e-05 -0.00176373 0
1.34887e-06 -0.000653304 0
5.0366e-06 -0.00176136 0
-1.99309e-05 -0.000654875 0
-2.78363e-05 -0.00176274 0
-1.24664e-05 -0.000653524 0
-1.39181e-05 -0.00176373 0
-3.7705e-05 -0.000658428 0
-4.38215e-05 -0.00175939 0
-1.99309e-05 -0.000654875 0
-2.78363e-05 -0.00176274 0
-5.29713e-05 -0.000662591 0
-4.76917e-05 -0.00175351 0
-3.7705e-05 -0.000658428 0
-4.38215e-05 -0.00175939 0
-6.5519e-05 -0.00066176 0
-4.95297e-05 -0.00175116 0
-5.29713e-05 -0.000662591 0
-4.76917e-05 -0.00175351 0
-5.976e-05 -0.000659102 0
-3.87417e-05 -0.00174703 0
-6.5519e-05 -0.00066176 0
-4.95297e-05 -0.00175116 0
-4.98679e-05 -0.000654965 0
-2.39185e-05 -0.00174107 0
-5.976e-05 -0.000659102 0
-3.87417e-05 -0.00174703 0
-1.59366e-05 -0.000649541 0
1.35681e-05 -0.00172764 0
-4.98679e-05 -0.000654965 0
-2.39185e-05 -0.00174107 0
2.57462e-05 -0.000643866 0
5.51577e-05 -0.00170591 0
-1.59366e-05 -0.000649541 0
1.35681e-05 -0.00172764 0
9.73213e-05 -0.000640665 0
0.000126424 -0.00166414 0
2.57462e-05 -0.000643866 0
5.51577e-05 -0.00170591 0
0.000170475 -0.000637991 0
0.000207966 -0.00160568 0
9.73213e-05 -0.000640665 0
0.000126424 -0.00166414 0
0.00027055 -0.000634124 0
0.000315071 -0.00151242 0
0.000170475 -0.000637991 0
0.000207966 -0.00160568 0
0.000351714 -0.000630645 0
0.000401536 -0.00138518 0
0.00027055 -0.000634124 0
0.000315071 -0.00151242 0
0.000405632 -0.000626809 0
0.00047301 -0.00119915 0
0.000351714 -0.000630645 0
0.000401536 -0.00138518 0
0.000370794 -0.000623246 0
0.000467119 -0.000958088 0
0.000405632 -0.000626809 0
0.00047301 -0.00119915 0
0.000219401 -0.000618124 0
0.000344609 -0.000633754 0
0.000370794 -0.000623246 0
0.000467119 -0.000958088 0
0.000219401 -0.000618124 0
-0.000153606 -0.000612251 0
0.000344609 -0.000633754 0
2.24511e-05 -0.000232813 0
-0.000847549 -0.000595808 0
-0.000614934 0.000275788 0
-0.000153606 -0.000612251 0
2.24511e-05 -0.000232813 0
-0.0020029 -0.000576837 0
-0.00170346 0.000901292 0
-0.000847549 -0.000595808 0
-0.000614934 0.000275788 0
-0.00387024 -0.000545707 0
-0.0035291 0.00169451 0
-0.0020029 -0.000576837 0
-0.00170346 0.000901292 0
-0.00663964 -0.000513835 0
-0.0062501 0.00266627 0
-0.00387024 -0.000545707 0
-0.0035291 0.00169451 0
-0.0107905 -0.000463532 0
-0.0103952 0.00388956 0
-0.00663964 -0.000513835 0
-0.0062501 0.00266627 0
-0.0107905 -0.000463532 0
-0.0164954 -0.000413551 0
-0.0103952 0.00388956 0
-0.016093 0.00544628 0
-0.0164954 -0.000413551 0
-0.0246094 -0.000342321 0
-0.016093 0.00544628 0
-0.0242503 0.00743207 0
-0.0350981 -0.000283458 0
-0.0347878 0.00993363 0
-0.0246094 -0.000342321 0
-0.0242503 0.00743207 0
-0.0493901 -0.000194408 0
-0.0491857 0.0130991 0
-0.0350981 -0.000283458 0
-0.0347878 0.00993363 0
-0.0667609 -0.000149634 0
-0.0666983 0.0168806 0
-0.0493901 -0.000194408 0
-0.0491857 0.0130991 0
-0.0894226 -4.94034e-05 0
-0.0895643 0.0210818 0
-0.0667609 -0.000149634 0
-0.0666983 0.0168806 0
-0.115131 -3.20327e-05 0
-0.115509 0.0259027 0
-0.0894226 -4.94034e-05 0
-0.0895643 0.0210818 0
-0.147868 9.81363e-05 0
-0.148395 0.0312399 0
-0.115131 -3.20327e-05 0
-0.115509 0.0259027 0
-0.183216 0.000116301 0
-0.183846 0.0375897 0
-0.147868 9.81363e-05 0
-0.148395 0.0312399 0
-0.228636 0.000256416 0
-0.227994 0.0453367 0
-0.183216 0.000116301 0
-0.183846 0.0375897 0
-0.276552 0.00108453 0
-0.275318 0.052461 0
-0.228636 0.000256416 0
-0.227994 0.0453367 0
-0.330032 0.000292252 0
-0.327249 0.0457521 0
-0.276552 0.00108453 0
-0.275318 0.052461 0
-0.330032 0.000292252 0
-0.35252 0.000524618 0
-0.327249 0.0457521 0
-0.373064 0.0203579 0
-0.248659 -0.00409612 0
-0.232838 -0.0418181 0
-0.301928 -0.00164507 0
-0.288556 -0.074611 0
-1.56067e-05 -0.000394267 0
-4.02364e-05 -0.000865417 0
3.33722e-07 -0.000385275 0
-2.32872e-05 -0.000867111 0
-1.56067e-05 -0.000394267 0
-3.86725e-05 -0.000399744 0
-4.02364e-05 -0.000865417 0
-4.97291e-05 -0.000866316 0
-5.71657e-05 -0.000403473 0
-6.52557e-05 -0.000865624 0
-3.86725e-05 -0.000399744 0
-4.97291e-05 -0.000866316 0
-5.71657e-05 -0.000403473 0
-6.74552e-05 -0.000406527 0
-6.52557e-05 -0.000865624 0
-7.82813e-05 -0.000866335 0
-6.74552e-05 -0.000406527 0
-7.65961e-05 -0.000409485 0
-7.82813e-05 -0.000866335 0
-8.77435e-05 -0.000868581 0
-7.65961e-05 -0.000409485 0
-8.45192e-05 -0.000411432 0
-8.77435e-05 -0.000868581 0
-9.29642e-05 -0.000872843 0
-8.45192e-05 -0.000411432 0
-8.89731e-05 -0.000411995 0
-9.29642e-05 -0.000872843 0
-0.000100043 -0.000878111 0
-8.89731e-05 -0.000411995 0
-9.33137e-05 -0.000414383 0
-0.000100043 -0.000878111 0
-0.000107131 -0.000882876 0
-9.33137e-05 -0.000414383 0
-9.99648e-05 -0.00041669 0
-0.000107131 -0.000882876 0
-0.000111254 -0.000886812 0
-9.99648e-05 -0.00041669 0
-0.000107626 -0.000418692 0
-0.000111254 -0.000886812 0
-0.000115586 -0.000890654 0
-0.000107626 -0.000418692 0
-0.000114901 -0.000419883 0
-0.000115586 -0.000890654 0
-0.000120202 -0.000893586 0
-0.000114901 -0.000419883 0
-0.000123101 -0.000421053 0
-0.000120202 -0.000893586 0
-0.000126078 -0.000896082 0
-0.000123101 -0.000421053 0
-0.000130943 -0.000421445 0
-0.000126078 -0.000896082 0
-0.000131553 -0.000898028 0
-0.000130943 -0.000421445 0
-0.000139495 -0.000421812 0
-0.000131553 -0.000898028 0
-0.000138747 -0.000899899 0
-0.000139495 -0.000421812 0
-0.000146117 -0.00042198 0
-0.000138747 -0.000899899 0
-0.000145376 -0.000901981 0
-0.000146117 -0.00042198 0
-0.000150943 -0.000422208 0
-0.000145376 -0.000901981 0
-0.000153539 -0.000904664 0
-0.000150943 -0.000422208 0
-0.000155292 -0.000422967 0
-0.000153539 -0.000904664 0
-0.000159697 -0.000906827 0
-0.000155292 -0.000422967 0
-0.000160039 -0.000423884 0
-0.000159697 -0.000906827 0
-0.00016379 -0.000909614 0
-0.000160039 -0.000423884 0
-0.000161874 -0.000424867 0
-0.00016379 -0.000909614 0
-0.000164761 -0.000912593 0
-0.000161874 -0.000424867 0
-0.000163637 -0.000425659 0
-0.000164761 -0.000912593 0
-0.000164934 -0.000915571 0
-0.000163637 -0.000425659 0
-0.000160673 -0.000425996 0
-0.000164934 -0.000915571 0
-0.0001615 -0.000918695 0
-0.000160673 -0.000425996 0
-0.000156034 -0.00042651 0
-0.0001615 -0.000918695 0
-0.000156874 -0.000921247 0
-0.000156034 -0.00042651 0
-0.000146802 -0.000426596 0
-0.000156874 -0.000921247 0
-0.00014788 -0.000923185 0
-0.000146802 -0.000426596 0
-0.000137721 -0.000426586 0
-0.00014788 -0.000923185 0
-0.000139589 -0.000924016 0
0.209269 -0.205477 0
0.135761 -0.130633 0
0.235112 -0.0853443 0
0.157189 -0.0849518 0
0.135761 -0.130633 0
0.0979533 -0.0977907 0
0.157189 -0.0849518 0
0.113164 -0.0699165 0
0.0769015 -0.0763771 0
0.0868006 -0.0598207 0
0.0979533 -0.0977907 0
0.113164 -0.0699165 0
0.0769015 -0.0763771 0
0.062484 -0.0626165 0
0.0868006 -0.0598207 0
0.0692699 -0.0506634 0
0.062484 -0.0626165 0
0.0524541 -0.0525536 0
0.0692699 -0.0506634 0
0.057108 -0.0442604 0
0.0524541 -0.0525536 0
0.0447828 -0.0450538 0
0.057108 -0.0442604 0
0.0480807 -0.03872 0
0.0447828 -0.0450538 0
0.0386976 -0.0389845 0
0.0480807 -0.03872 0
0.0409789 -0.034246 0
0.0336024 -0.0339499 0
0.0351962 -0.0302155 0
0.0386976 -0.0389845 0
0.0409789 -0.034246 0
0.029167 -0.029539 0
0.0302196 -0.0266303 0
0.0336024 -0.0339499 0
0.0351962 -0.0302155 0
0.029167 -0.029539 0
0.0252322 -0.0256332 0
0.0302196 -0.0266303 0
0.0258963 -0.0233224 0
0.0252322 -0.0256332 0
0.0216741 -0.0220928 0
0.0258963 -0.0233224 0
0.0220302 -0.0202647 0
0.0216741 -0.0220928 0
0.0184662 -0.0188962 0
0.0220302 -0.0202647 0
0.0185901 -0.0174481 0
0.0184662 -0.0188962 0
0.0155797 -0.016018 0
0.0185901 -0.0174481 0
0.0155137 -0.0148729 0
0.0155797 -0.016018 0
0.0130107 -0.0134538 0
0.0155137 -0.0148729 0
0.0128007 -0.0125479 0
0.0130107 -0.0134538 0
0.0107628 -0.0112096 0
0.0128007 -0.0125479 0
0.0104409 -0.010495 0
0.0107628 -0.0112096 0
0.00881227 -0.0092618 0
0.0104409 -0.010495 0
0.00840133 -0.00870565 0
0.00717578 -0.00761722 0
0.00669446 -0.00719044 0
0.00881227 -0.0092618 0
0.00840133 -0.00870565 0
0.00579286 -0.00622897 0
0.00522998 -0.00590076 0
0.00717578 -0.00761722 0
0.00669446 -0.00719044 0
0.00579286 -0.00622897 0
0.00468443 -0.00512756 0
0.00522998 -0.00590076 0
0.00407833 -0.0048493 0
0.00375003 -0.00420948 0
0.00312099 -0.00397323 0
0.00468443 -0.00512756 0
0.00407833 -0.0048493 0
0.00304115 -0.00353066 0
0.00245018 -0.00330616 0
0.00375003 -0.00420948 0
0.00312099 -0.00397323 0
0.00304115 -0.00353066 0
0.00242816 -0.00291881 0
0.00245018 -0.00330616 0
0.00185076 -0.00278222 0
0.0020593 -0.00253622 0
0.00146297 -0.00243979 0
0.00242816 -0.00291881 0
0.00185076 -0.00278222 0
0.0020593 -0.00253622 0
0.00171077 -0.00218932 0
0.00146297 -0.00243979 0
0.00108424 -0.00209839 0
0.00171077 -0.00218932 0
0.00152668 -0.00202062 0
0.00108424 -0.00209839 0
0.000968918 -0.00192296 0
0.00152668 -0.00202062 0
0.00121307 -0.00170971 0
0.000968918 -0.00192296 0
0.000729145 -0.00155933 0
0.00121307 -0.00170971 0
0.000914138 -0.00137425 0
0.000729145 -0.00155933 0
0.000830781 -0.00158168 0
0.000914138 -0.00137425 0
0.000625637 -0.00094635 0
0.000830781 -0.00158168 0
0.000522198 -0.000849307 0
0.000625637 -0.00094635 0
0.000301021 -0.000533705 0
0.000522198 -0.000849307 0
0.000375629 -0.00107808 0
0.000301021 -0.000533705 0
0.000630788 -0.000283261 0
0.000375629 -0.00107808 0
0.000515787 -0.000840045 0
0.000630788 -0.000283261 0
0.000492825 -0.00037569 0
0.000515787 -0.000840045 0
6.44378e-05 -0.000886027 0
0.000492825 -0.00037569 0
0.000347594 -0.000452117 0
6.44378e-05 -0.000886027 0
0.000259012 -0.000821191 0
0.000347594 -0.000452117 0
3.20235e-06 -0.000404679 0
0.000259012 -0.000821191 0
5.31074e-05 -0.000924148 0
-0.00014788 -0.000923185 0
-0.000139589 -0.000924016 0
-0.000149369 -0.000593768 0
-0.000141815 -0.000597213 0
-0.000149369 -0.000593768 0
-0.000141815 -0.000597213 0
-0.000154162 -0.000988622 0
-0.000147335 -0.000991438 0
-0.000154162 -0.000988622 0
-0.000147335 -0.000991438 0
-0.000161437 -0.00076259 0
-0.000154034 -0.000766813 0
-0.000161437 -0.00076259 0
-0.000154034 -0.000766813 0
-0.000169723 -0.00108135 0
-0.000164489 -0.0010867 0
-0.000169723 -0.00108135 0
-0.000164489 -0.0010867 0
-0.000180931 -0.000939983 0
-0.000175008 -0.00094589 0
-0.000180931 -0.000939983 0
-0.000175008 -0.00094589 0
-0.000192194 -0.0012055 0
-0.00018788 -0.00121278 0
-0.000206818 -0.00113582 0
-0.000192194 -0.0012055 0
-0.000202238 -0.00114402 0
-0.00018788 -0.00121278 0
-0.000206818 -0.00113582 0
-0.000202238 -0.00114402 0
-0.000222819 -0.00136417 0
-0.000219101 -0.00137351 0
-0.000222819 -0.00136417 0
-0.000219101 -0.00137351 0
-0.000242187 -0.00135327 0
-0.000238791 -0.00136426 0
-0.000242187 -0.00135327 0
-0.000238791 -0.00136426 0
-0.000265181 -0.00155081 0
-0.000263152 -0.00156317 0
-0.000265181 -0.00155081 0
-0.000263152 -0.00156317 0
-0.000292443 -0.00158183 0
-0.000292223 -0.00159659 0
-0.000292443 -0.00158183 0
-0.000292223 -0.00159659 0
-0.000325999 -0.00174175 0
-0.000330869 -0.00175892 0
-0.000325999 -0.00174175 0
-0.000330869 -0.00175892 0
-0.000364865 -0.00178942 0
-0.000377071 -0.00180912 0
-0.000364865 -0.00178942 0
-0.000377071 -0.00180912 0
-0.000410114 -0.00188999 0
-0.00043493 -0.00191222 0
-0.000410114 -0.00188999 0
-0.00043493 -0.00191222 0
-0.000457265 -0.00192135 0
-0.000499057 -0.00194416 0
-0.000457265 -0.00192135 0
-0.000499057 -0.00194416 0
-0.000502178 -0.0019323 0
-0.000564829 -0.00195329 0
-0.000502178 -0.0019323 0
-0.000564829 -0.00195329 0
-0.000534316 -0.00192139 0
-0.000617584 -0.00193556 0
-0.000534316 -0.00192139 0
-0.000617584 -0.00193556 0
-0.000544622 -0.00182847 0
-0.000641337 -0.00183143 0
-0.000544622 -0.00182847 0
-0.000641337 -0.00183143 0
-0.000525849 -0.0017908 0
-0.000621433 -0.00177941 0
-0.000525849 -0.0017908 0
-0.000621433 -0.00177941 0
-0.000479729 -0.00162424 0
-0.000559895 -0.00160267 0
-0.000479729 -0.00162424 0
-0.000559895 -0.00160267 0
-0.000416139 -0.00161946 0
-0.000474477 -0.00159169 0
-0.000416139 -0.00161946 0
-0.000474477 -0.00159169 0
-0.000344834 -0.00141533 0
-0.000381695 -0.00138766 0
-0.000344834 -0.00141533 0
-0.000381695 -0.00138766 0
-0.000279528 -0.00149084 0
-0.00029865 -0.00146466 0
-0.000279528 -0.00149084 0
-0.00029865 -0.00146466 0
-0.000217459 -0.00124504 0
-0.000224461 -0.00122494 0
-0.000217459 -0.00124504 0
-0.000224461 -0.00122494 0
-0.000175232 -0.00142744 0
-0.0001768 -0.00140931 0
-0.000175232 -0.00142744 0
-0.0001768 -0.00140931 0
-0.0001311 -0.00110841 0
-0.000127565 -0.00109352 0
-0.0001311 -0.00110841 0
-0.000127565 -0.00109352 0
-0.000102503 -0.00144186 0
-9.89381e-05 -0.00142934 0
-0.000102503 -0.00144186 0
-9.89381e-05 -0.00142934 0
-7.01592e-05 -0.000991254 0
-6.36104e-05 -0.000982746 0
-7.01592e-05 -0.000991254 0
-6.36104e-05 -0.000982746 0
-6.1725e-05 -0.00153411 0
-5.5905e-05 -0.00153 0
-6.1725e-05 -0.00153411 0
-5.5905e-05 -0.00153 0
-5.30926e-05 -0.000858902 0
-4.74592e-05 -0.000855448 0
-5.30926e-05 -0.000858902 0
-4.74592e-05 -0.000855448 0
-5.43752e-05 -0.0017039 0
-4.77254e-05 -0.00170348 0
0.235112 -0.0853443 0
0.205216 -0.00200382 0
0.385711 -0.107564 0
0.25387 0.0526383 0
0.235112 -0.0853443 0
0.157189 -0.0849518 0
0.205216 -0.00200382 0
0.150633 -0.0263243 0
0.157189 -0.0849518 0
0.113164 -0.0699165 0
0.150633 -0.0263243 0
0.114723 -0.0354154 0
0.0868006 -0.0598207 0
0.0889358 -0.0358215 0
0.113164 -0.0699165 0
0.114723 -0.0354154 0
0.0868006 -0.0598207 0
0.0692699 -0.0506634 0
0.0889358 -0.0358215 0
0.0720495 -0.0348397 0
0.0692699 -0.0506634 0
0.057108 -0.0442604 0
0.0720495 -0.0348397 0
0.0592682 -0.0322983 0
0.057108 -0.0442604 0
0.0480807 -0.03872 0
0.0592682 -0.0322983 0
0.050035 -0.0299836 0
0.0480807 -0.03872 0
0.0409789 -0.034246 0
0.050035 -0.0299836 0
0.0424807 -0.0272793 0
0.0351962 -0.0302155 0
0.0364217 -0.0247883 0
0.0409789 -0.034246 0
0.0424807 -0.0272793 0
0.0302196 -0.0266303 0
0.0311222 -0.0222161 0
0.0351962 -0.0302155 0
0.0364217 -0.0247883 0
0.0302196 -0.0266303 0
0.0258963 -0.0233224 0
0.0311222 -0.0222161 0
0.0265688 -0.0197516 0
0.0258963 -0.0233224 0
0.0220302 -0.0202647 0
0.0265688 -0.0197516 0
0.0224751 -0.0173107 0
0.0220302 -0.0202647 0
0.0185901 -0.0174481 0
0.0224751 -0.0173107 0
0.0188784 -0.0150024 0
0.0185901 -0.0174481 0
0.0155137 -0.0148729 0
0.0188784 -0.0150024 0
0.0156665 -0.0128112 0
0.0155137 -0.0148729 0
0.0128007 -0.0125479 0
0.0156665 -0.0128112 0
0.0128571 -0.0108138 0
0.0128007 -0.0125479 0
0.0104409 -0.010495 0
0.0128571 -0.0108138 0
0.010396 -0.00901452 0
0.0104409 -0.010495 0
0.00840133 -0.00870565 0
0.010396 -0.00901452 0
0.00829993 -0.00743351 0
0.00669446 -0.00719044 0
0.00654826 -0.00605057 0
0.00840133 -0.00870565 0
0.00829993 -0.00743351 0
0.00522998 -0.00590076 0
0.00510043 -0.00489577 0
0.00669446 -0.00719044 0
0.00654826 -0.00605057 0
0.00522998 -0.00590076 0
0.00407833 -0.0048493 0
0.00510043 -0.00489577 0
0.00394148 -0.00394862 0
0.00312099 -0.00397323 0
0.00297103 -0.00322053 0
0.00407833 -0.0048493 0
0.00394148 -0.00394862 0
0.00245018 -0.00330616 0
0.00224032 -0.00263271 0
0.00312099 -0.00397323 0
0.00297103 -0.00322053 0
0.00245018 -0.00330616 0
0.00185076 -0.00278222 0
0.00224032 -0.00263271 0
0.00158476 -0.00211915 0
0.00146297 -0.00243979 0
0.00119738 -0.00172164 0
0.00185076 -0.00278222 0
0.00158476 -0.00211915 0
0.00146297 -0.00243979 0
0.00108424 -0.00209839 0
0.00119738 -0.00172164 0
0.000818148 -0.00155628 0
0.00108424 -0.00209839 0
0.000968918 -0.00192296 0
0.000818148 -0.00155628 0
0.000811708 -0.00136319 0