# vtk DataFile Version 3.0
#This file was generated by the deal.II library on 2016/12/20 at 10:56:55
ASCII
DATASET UNSTRUCTURED_GRID

POINTS 7348 double
-1 0.5 0
-0.978723 0.478723 0
-0.970149 0.5 0
-0.964976 0.485465 0
0.12 -0.5 0
0.15 -0.5 0
0.119014 -0.4708 0
0.15 -0.471429 0
0.11755 -0.441479 0
0.119014 -0.4708 0
0.15 -0.442857 0
0.15 -0.471429 0
0.117242 -0.412206 0
0.11755 -0.441479 0
0.15 -0.414286 0
0.15 -0.442857 0
0.118129 -0.383064 0
0.117242 -0.412206 0
0.15 -0.385714 0
0.15 -0.414286 0
0.12021 -0.354337 0
0.118129 -0.383064 0
0.15 -0.357143 0
0.15 -0.385714 0
0.121793 -0.32584 0
0.12021 -0.354337 0
0.15 -0.328571 0
0.15 -0.357143 0
0.122717 -0.296869 0
0.121793 -0.32584 0
0.15 -0.3 0
0.15 -0.328571 0
0.123759 -0.266752 0
0.122717 -0.296869 0
0.153091 -0.267708 0
0.15 -0.3 0
0.18456 -0.26795 0
0.153091 -0.267708 0
0.183333 -0.3 0
0.15 -0.3 0
0.216606 -0.268111 0
0.18456 -0.26795 0
0.216667 -0.3 0
0.183333 -0.3 0
0.24835 -0.26841 0
0.216606 -0.268111 0
0.25 -0.3 0
0.216667 -0.3 0
0.278782 -0.268564 0
0.24835 -0.26841 0
0.279437 -0.298917 0
0.25 -0.3 0
0.279638 -0.328111 0
0.279437 -0.298917 0
0.25 -0.328571 0
0.25 -0.3 0
0.27971 -0.356801 0
0.279638 -0.328111 0
0.25 -0.357143 0
0.25 -0.328571 0
0.279677 -0.385395 0
0.27971 -0.356801 0
0.25 -0.385714 0
0.25 -0.357143 0
0.279641 -0.413938 0
0.279677 -0.385395 0
0.25 -0.414286 0
0.25 -0.385714 0
0.279666 -0.442534 0
0.279641 -0.413938 0
0.25 -0.442857 0
0.25 -0.414286 0
0.279811 -0.471266 0
0.279666 -0.442534 0
0.25 -0.471429 0
0.25 -0.442857 0
0.28 -0.5 0
0.279811 -0.471266 0
0.25 -0.5 0
0.25 -0.471429 0
0.970149 0.5 0
0.970096 0.46978 0
1 0.5 0
1 0.469697 0
0.940299 0.5 0
0.940231 0.46984 0
0.970149 0.5 0
0.970096 0.46978 0
0.910448 0.5 0
0.910371 0.469856 0
0.940299 0.5 0
0.940231 0.46984 0
0.880597 0.5 0
0.880527 0.469909 0
0.910448 0.5 0
0.910371 0.469856 0
0.850746 0.5 0
0.850684 0.469926 0
0.880597 0.5 0
0.880527 0.469909 0
0.820896 0.5 0
0.820842 0.469978 0
0.850746 0.5 0
0.850684 0.469926 0
0.791045 0.5 0
0.791001 0.470016 0
0.820896 0.5 0
0.820842 0.469978 0
0.761194 0.5 0
0.761159 0.470055 0
0.791045 0.5 0
0.791001 0.470016 0
0.731343 0.5 0
0.731316 0.470091 0
0.761194 0.5 0
0.761159 0.470055 0
0.701493 0.5 0
0.701472 0.470118 0
0.731343 0.5 0
0.731316 0.470091 0
0.671642 0.5 0
0.671627 0.470134 0
0.701493 0.5 0
0.701472 0.470118 0
0.641791 0.5 0
0.64178 0.470142 0
0.671642 0.5 0
0.671627 0.470134 0
0.641791 0.5 0
0.61194 0.5 0
0.64178 0.470142 0
0.611934 0.470065 0
0.58209 0.5 0
0.582089 0.470002 0
0.61194 0.5 0
0.611934 0.470065 0
0.552239 0.5 0
0.552248 0.469853 0
0.58209 0.5 0
0.582089 0.470002 0
0.522388 0.5 0
0.522413 0.469718 0
0.552239 0.5 0
0.552248 0.469853 0
0.492537 0.5 0
0.492577 0.469656 0
0.522388 0.5 0
0.522413 0.469718 0
0.462687 0.5 0
0.462743 0.469571 0
0.492537 0.5 0
0.492577 0.469656 0
0.432836 0.5 0
0.432895 0.46963 0
0.462687 0.5 0
0.462743 0.469571 0
0.402985 0.5 0
0.403046 0.469669 0
0.432836 0.5 0
0.432895 0.46963 0
0.373134 0.5 0
0.373191 0.469745 0
0.402985 0.5 0
0.403046 0.469669 0
0.343284 0.5 0
0.343335 0.469723 0
0.373134 0.5 0
0.373191 0.469745 0
0.313433 0.5 0
0.313478 0.469741 0
0.343284 0.5 0
0.343335 0.469723 0
0.283582 0.5 0
0.283622 0.469783 0
0.313433 0.5 0
0.313478 0.469741 0
0.253731 0.5 0
0.253768 0.469742 0
0.283582 0.5 0
0.283622 0.469783 0
0.223881 0.5 0
0.223918 0.469737 0
0.253731 0.5 0
0.253768 0.469742 0
0.19403 0.5 0
0.194064 0.46981 0
0.223881 0.5 0
0.223918 0.469737 0
0.164179 0.5 0
0.16421 0.469881 0
0.19403 0.5 0
0.194064 0.46981 0
0.134328 0.5 0
0.134355 0.46994 0
0.164179 0.5 0
0.16421 0.469881 0
0.104478 0.5 0
0.1045 0.469997 0
0.134328 0.5 0
0.134355 0.46994 0
0.074627 0.5 0
0.074645 0.470051 0
0.104478 0.5 0
0.1045 0.469997 0
0.044776 0.5 0
0.04479 0.470093 0
0.074627 0.5 0
0.074645 0.470051 0
0.014925 0.5 0
0.014935 0.47012 0
0.044776 0.5 0
0.04479 0.470093 0
-0.014925 0.5 0
-0.014918 0.470135 0
0.014925 0.5 0
0.014935 0.47012 0
-0.044776 0.5 0
-0.044771 0.470143 0
-0.014925 0.5 0
-0.014918 0.470135 0
-0.074627 0.5 0
-0.074623 0.470146 0
-0.044776 0.5 0
-0.044771 0.470143 0
-0.104478 0.5 0
-0.104496 0.469979 0
-0.074627 0.5 0
-0.074623 0.470146 0
-0.134328 0.5 0
-0.134359 0.469935 0
-0.104478 0.5 0
-0.104496 0.469979 0
-0.164179 0.5 0
-0.164225 0.469839 0
-0.134328 0.5 0
-0.134359 0.469935 0
-0.164179 0.5 0
-0.19403 0.5 0
-0.164225 0.469839 0
-0.194083 0.469797 0
-0.223881 0.5 0
-0.22394 0.469753 0
-0.19403 0.5 0
-0.194083 0.469797 0
-0.253731 0.5 0
-0.253798 0.469819 0
-0.223881 0.5 0
-0.22394 0.469753 0
-0.283582 0.5 0
-0.283647 0.470019 0
-0.253731 0.5 0
-0.253798 0.469819 0
-0.313433 0.5 0
-0.313491 0.470151 0
-0.283582 0.5 0
-0.283647 0.470019 0
-0.343284 0.5 0
-0.343348 0.470381 0
-0.313433 0.5 0
-0.313491 0.470151 0
-0.343284 0.5 0
-0.373134 0.5 0
-0.343348 0.470381 0
-0.373195 0.470395 0
-0.373134 0.5 0
-0.402985 0.5 0
-0.373195 0.470395 0
-0.403049 0.470404 0
-0.432836 0.5 0
-0.432937 0.470297 0
-0.402985 0.5 0
-0.403049 0.470404 0
-0.462687 0.5 0
-0.462848 0.469995 0
-0.432836 0.5 0
-0.432937 0.470297 0
-0.492537 0.5 0
-0.492807 0.469765 0
-0.462687 0.5 0
-0.462848 0.469995 0
-0.522388 0.5 0
-0.52276 0.46958 0
-0.492537 0.5 0
-0.492807 0.469765 0
-0.552239 0.5 0
-0.55273 0.469652 0
-0.522388 0.5 0
-0.52276 0.46958 0
-0.58209 0.5 0
-0.582662 0.469731 0
-0.552239 0.5 0
-0.55273 0.469652 0
-0.61194 0.5 0
-0.612594 0.469999 0
-0.58209 0.5 0
-0.582662 0.469731 0
-0.641791 0.5 0
-0.642647 0.470419 0
-0.61194 0.5 0
-0.612594 0.469999 0
-0.671642 0.5 0
-0.672638 0.470543 0
-0.641791 0.5 0
-0.642647 0.470419 0
-0.701493 0.5 0
-0.702968 0.4698 0
-0.671642 0.5 0
-0.672638 0.470543 0
-0.701493 0.5 0
-0.731343 0.5 0
-0.702968 0.4698 0
-0.733232 0.468149 0
-0.820896 0.5 0
-0.822797 0.47207 0
-0.791045 0.5 0
-0.795702 0.469563 0
0.31 -0.5 0
0.309694 -0.471123 0
0.28 -0.5 0
0.279811 -0.471266 0
0.31 -0.5 0
0.34 -0.5 0
0.309694 -0.471123 0
0.339686 -0.471033 0
0.37 -0.5 0
0.369721 -0.471055 0
0.34 -0.5 0
0.339686 -0.471033 0
0.37 -0.5 0
0.4 -0.5 0
0.369721 -0.471055 0
0.399756 -0.470957 0
0.4 -0.5 0
0.43 -0.5 0
0.399756 -0.470957 0
0.429805 -0.470822 0
0.43 -0.5 0
0.46 -0.5 0
0.429805 -0.470822 0
0.459835 -0.470712 0
0.46 -0.5 0
0.49 -0.5 0
0.459835 -0.470712 0
0.489873 -0.470554 0
0.49 -0.5 0
0.52 -0.5 0
0.489873 -0.470554 0
0.519906 -0.470379 0
0.52 -0.5 0
0.55 -0.5 0
0.519906 -0.470379 0
0.54993 -0.470248 0
0.55 -0.5 0
0.58 -0.5 0
0.54993 -0.470248 0
0.579948 -0.470155 0
0.58 -0.5 0
0.61 -0.5 0
0.579948 -0.470155 0
0.609962 -0.470091 0
0.61 -0.5 0
0.64 -0.5 0
0.609962 -0.470091 0
0.639972 -0.47005 0
0.64 -0.5 0
0.67 -0.5 0
0.639972 -0.47005 0
0.66998 -0.470026 0
0.67 -0.5 0
0.7 -0.5 0
0.66998 -0.470026 0
0.699986 -0.470013 0
0.7 -0.5 0
0.73 -0.5 0
0.699986 -0.470013 0
0.72999 -0.470006 0
0.73 -0.5 0
0.76 -0.5 0
0.72999 -0.470006 0
0.759994 -0.470003 0
0.76 -0.5 0
0.79 -0.5 0
0.759994 -0.470003 0
0.78998 -0.469916 0
0.79 -0.5 0
0.82 -0.5 0
0.78998 -0.469916 0
0.819956 -0.469877 0
0.82 -0.5 0
0.85 -0.5 0
0.819956 -0.469877 0
0.849929 -0.469833 0
0.85 -0.5 0
0.88 -0.5 0
0.849929 -0.469833 0
0.879924 -0.469805 0
0.88 -0.5 0
0.91 -0.5 0
0.879924 -0.469805 0
0.909913 -0.469792 0
0.91 -0.5 0
0.94 -0.5 0
0.909913 -0.469792 0
0.939922 -0.469775 0
0.94 -0.5 0
0.97 -0.5 0
0.939922 -0.469775 0
0.969956 -0.46974 0
0.97 -0.5 0
1 -0.5 0
0.969956 -0.46974 0
1 -0.469697 0
-0.617021 0.117021 0
-0.595665 0.139192 0
-0.638298 0.138298 0
-0.616915 0.16063 0
-0.617021 0.117021 0
-0.595745 0.095745 0
-0.595665 0.139192 0
-0.574431 0.117764 0
-0.595745 0.095745 0
-0.574468 0.074468 0
-0.574431 0.117764 0
-0.553204 0.096309 0
-0.553191 0.053191 0
-0.53184 0.075023 0
-0.574468 0.074468 0
-0.553204 0.096309 0
-0.553191 0.053191 0
-0.531915 0.031915 0
-0.53184 0.075023 0
-0.510492 0.053733 0
-0.531915 0.031915 0
-0.510638 0.010638 0
-0.510492 0.053733 0
-0.489127 0.032461 0
-0.510638 0.010638 0
-0.489362 -0.010638 0
-0.489127 0.032461 0
-0.467791 0.011178 0
-0.489362 -0.010638 0
-0.468085 -0.031915 0
-0.467791 0.011178 0
-0.446536 -0.010172 0
-0.446809 -0.053191 0
-0.42524 -0.031466 0
-0.468085 -0.031915 0
-0.446536 -0.010172 0
-0.425532 -0.074468 0
-0.404012 -0.052824 0
-0.446809 -0.053191 0
-0.42524 -0.031466 0
-0.425532 -0.074468 0
-0.404255 -0.095745 0
-0.404012 -0.052824 0
-0.382783 -0.074175 0
-0.404255 -0.095745 0
-0.382979 -0.117021 0
-0.382783 -0.074175 0
-0.361545 -0.095511 0
-0.382979 -0.117021 0
-0.361702 -0.138298 0
-0.361545 -0.095511 0
-0.340288 -0.116831 0
-0.361702 -0.138298 0
-0.340426 -0.159574 0
-0.340288 -0.116831 0
-0.319034 -0.138159 0
-0.340426 -0.159574 0
-0.319149 -0.180851 0
-0.319034 -0.138159 0
-0.297766 -0.159484 0
-0.319149 -0.180851 0
-0.297872 -0.202128 0
-0.297766 -0.159484 0
-0.276489 -0.180797 0
-0.297872 -0.202128 0
-0.276596 -0.223404 0
-0.276489 -0.180797 0
-0.255087 -0.202105 0
-0.255319 -0.244681 0
-0.233674 -0.223466 0
-0.276596 -0.223404 0
-0.255087 -0.202105 0
-0.234043 -0.265957 0
-0.212119 -0.244916 0
-0.255319 -0.244681 0
-0.233674 -0.223466 0
-0.234043 -0.265957 0
-0.212766 -0.287234 0
-0.212119 -0.244916 0
-0.190657 -0.266392 0
-0.191489 -0.308511 0
-0.169261 -0.287934 0
-0.212766 -0.287234 0
-0.190657 -0.266392 0
-0.170213 -0.329787 0
-0.147854 -0.309624 0
-0.191489 -0.308511 0
-0.169261 -0.287934 0
-0.170213 -0.329787 0
-0.148936 -0.351064 0
-0.147854 -0.309624 0
-0.126431 -0.331364 0
-0.12766 -0.37234 0
-0.105256 -0.353368 0
-0.148936 -0.351064 0
-0.126431 -0.331364 0
-0.12766 -0.37234 0
-0.106383 -0.393617 0
-0.105256 -0.353368 0
-0.083924 -0.375263 0
-0.106383 -0.393617 0
-0.085106 -0.414894 0
-0.083924 -0.375263 0
-0.062097 -0.396824 0
-0.085106 -0.414894 0
-0.06383 -0.43617 0
-0.062097 -0.396824 0
-0.040132 -0.418076 0
-0.06383 -0.43617 0
-0.042553 -0.457447 0
-0.040132 -0.418076 0
-0.019646 -0.439891 0
-0.042553 -0.457447 0
-0.021277 -0.478723 0
-0.019646 -0.439891 0
-0.002475 -0.461393 0
-0.021277 -0.478723 0
0 -0.5 0
-0.002475 -0.461393 0
0.009599 -0.478226 0
0 -0.5 0
0.03 -0.5 0
0.009599 -0.478226 0
0.029922 -0.474701 0
0.03 -0.5 0
0.06 -0.5 0
[...]
POINT_DATA 7348
VECTORS momentum double
-0.000634 -5.7828e-06 0
-0.00510214 0.00429224 0
-0.00254822 -0.000351178 0
-0.00443218 0.00465719 0
-1.68025e-05 -0.000403558 0
7.41978e-05 -0.000408168 0
3.38882e-05 -0.000912686 0
6.4726e-05 -0.000865615 0
-0.000161671 -0.000571274 0
3.38882e-05 -0.000912686 0
7.75155e-05 -0.000608845 0
6.4726e-05 -0.000865615 0
-2.14205e-05 -0.00102624 0
-0.000161671 -0.000571274 0
-1.70609e-06 -0.00112152 0
7.75155e-05 -0.000608845 0
6.60343e-05 -0.00075254 0
-2.14205e-05 -0.00102624 0
-8.62175e-06 -0.000868009 0
-1.70609e-06 -0.00112152 0
8.48886e-05 -0.00110771 0
6.60343e-05 -0.00075254 0
-4.36045e-05 -0.00109227 0
-8.62175e-06 -0.000868009 0
0.00024938 -0.000872681 0
8.48886e-05 -0.00110771 0
2.19176e-05 -0.000837609 0
-4.36045e-05 -0.00109227 0
4.17637e-05 -0.00143846 0
0.00024938 -0.000872681 0
-5.93961e-05 -0.00065958 0
2.19176e-05 -0.000837609 0
-0.00044632 -0.000985771 0
4.17637e-05 -0.00143846 0
-0.000727584 -0.00109157 0
-5.93961e-05 -0.00065958 0
-0.000331364 -0.00138619 0
-0.000727584 -0.00109157 0
-5.8395e-05 -0.000431469 0
-5.93961e-05 -0.00065958 0
-0.000137009 -0.0014438 0
-0.000331364 -0.00138619 0
-0.000408773 -0.000477447 0
-5.8395e-05 -0.000431469 0
0.000134533 -0.000987008 0
-0.000137009 -0.0014438 0
-0.000139354 -0.000568143 0
-0.000408773 -0.000477447 0
2.80784e-05 -0.000738983 0
0.000134533 -0.000987008 0
-0.000179685 -0.00110032 0
-0.000139354 -0.000568143 0
-8.21264e-05 -0.000605228 0
-0.000179685 -0.00110032 0
-1.16901e-05 -0.000543694 0
-0.000139354 -0.000568143 0
-2.52045e-05 -0.000892518 0
-8.21264e-05 -0.000605228 0
-4.87884e-06 -0.000871555 0
-1.16901e-05 -0.000543694 0
7.80193e-07 -0.000518314 0
-2.52045e-05 -0.000892518 0
-3.38046e-06 -0.000522375 0
-4.87884e-06 -0.000871555 0
-1.96004e-05 -0.000856828 0
7.80193e-07 -0.000518314 0
-5.71025e-07 -0.000852983 0
-3.38046e-06 -0.000522375 0
-3.38939e-06 -0.000448415 0
-1.96004e-05 -0.000856828 0
-9.14103e-07 -0.000447584 0
-5.71025e-07 -0.000852983 0
-2.3596e-05 -0.000861687 0
-3.38939e-06 -0.000448415 0
-1.55531e-06 -0.000860563 0
-9.14103e-07 -0.000447584 0
1.65297e-06 -0.000383743 0
-2.3596e-05 -0.000861687 0
8.99419e-07 -0.000381623 0
-1.55531e-06 -0.000860563 0
-5.61981e-05 -0.000655311 0
-4.62442e-05 -0.00169841 0
-5.37534e-05 -0.000655467 0
-4.0874e-05 -0.00169793 0
-5.51214e-05 -0.000655873 0
-4.84597e-05 -0.00170118 0
-5.61981e-05 -0.000655311 0
-4.62442e-05 -0.00169841 0
-5.17378e-05 -0.000655498 0
-4.46743e-05 -0.00170373 0
-5.51214e-05 -0.000655873 0
-4.84597e-05 -0.00170118 0
-4.68537e-05 -0.000654615 0
-4.01523e-05 -0.00170585 0
-5.17378e-05 -0.000655498 0
-4.46743e-05 -0.00170373 0
-3.98921e-05 -0.000653928 0
-3.21175e-05 -0.00170823 0
-4.68537e-05 -0.000654615 0
-4.01523e-05 -0.00170585 0
-3.13182e-05 -0.000652502 0
-2.29435e-05 -0.00171048 0
-3.98921e-05 -0.000653928 0
-3.21175e-05 -0.00170823 0
-1.96854e-05 -0.000651747 0
-1.15717e-05 -0.00171284 0
-3.13182e-05 -0.000652502 0
-2.29435e-05 -0.00171048 0
-7.09959e-06 -0.000650164 0
1.43808e-06 -0.00171591 0
-1.96854e-05 -0.000651747 0
-1.15717e-05 -0.00171284 0
8.70168e-06 -0.000648902 0
1.46333e-05 -0.00171911 0
-7.09959e-06 -0.000650164 0
1.43808e-06 -0.00171591 0
2.51344e-05 -0.000648093 0
2.94533e-05 -0.00172293 0
8.70168e-06 -0.000648902 0
1.46333e-05 -0.00171911 0
4.41473e-05 -0.000646838 0
4.4198e-05 -0.00172652 0
2.51344e-05 -0.000648093 0
2.94533e-05 -0.00172293 0
6.39341e-05 -0.000646089 0
5.48157e-05 -0.0017314 0
4.41473e-05 -0.000646838 0
4.4198e-05 -0.00172652 0
6.39341e-05 -0.000646089 0
7.99498e-05 -0.000646681 0
5.48157e-05 -0.0017314 0
6.5503e-05 -0.00173686 0
9.41848e-05 -0.000647023 0
7.21454e-05 -0.0017442 0
7.99498e-05 -0.000646681 0
6.5503e-05 -0.00173686 0
0.000102978 -0.000649723 0
7.66637e-05 -0.00175053 0
9.41848e-05 -0.000647023 0
7.21454e-05 -0.0017442 0
0.000102567 -0.000652405 0
8.33831e-05 -0.00175444 0
0.000102978 -0.000649723 0
7.66637e-05 -0.00175053 0
0.000102378 -0.000653637 0
8.72086e-05 -0.00175503 0
0.000102567 -0.000652405 0
8.33831e-05 -0.00175444 0
9.16118e-05 -0.00065567 0
8.50564e-05 -0.0017541 0
0.000102378 -0.000653637 0
8.72086e-05 -0.00175503 0
7.30305e-05 -0.000656307 0
7.8066e-05 -0.00175233 0
9.16118e-05 -0.00065567 0
8.50564e-05 -0.0017541 0
5.35421e-05 -0.000655423 0
6.45092e-05 -0.00175026 0
7.30305e-05 -0.000656307 0
7.8066e-05 -0.00175233 0
3.8494e-05 -0.000653686 0
4.64966e-05 -0.00175078 0
5.35421e-05 -0.000655423 0
6.45092e-05 -0.00175026 0
2.41451e-05 -0.000653813 0
2.70707e-05 -0.00175097 0
3.8494e-05 -0.000653686 0
4.64966e-05 -0.00175078 0
9.1713e-06 -0.000653675 0
1.30044e-05 -0.0017555 0
2.41451e-05 -0.000653813 0
2.70707e-05 -0.00175097 0
-4.28641e-06 -0.000653898 0
-5.6664e-06 -0.00175777 0
9.1713e-06 -0.000653675 0
1.30044e-05 -0.0017555 0
-1.18267e-05 -0.000655268 0
-1.97942e-05 -0.00175692 0
-4.28641e-06 -0.000653898 0
-5.6664e-06 -0.00175777 0
-3.11953e-05 -0.000658857 0
-3.75962e-05 -0.00175412 0
-1.18267e-05 -0.000655268 0
-1.97942e-05 -0.00175692 0
-4.92968e-05 -0.00066308 0
-4.46655e-05 -0.00174928 0
-3.11953e-05 -0.000658857 0
-3.75962e-05 -0.00175412 0
-6.80019e-05 -0.000662344 0
-5.31976e-05 -0.00174871 0
-4.92968e-05 -0.00066308 0
-4.46655e-05 -0.00174928 0
-7.06943e-05 -0.000659826 0
-5.16258e-05 -0.00174735 0
-6.80019e-05 -0.000662344 0
-5.31976e-05 -0.00174871 0
-7.50578e-05 -0.000655894 0
-5.20591e-05 -0.00174576 0
-7.06943e-05 -0.000659826 0
-5.16258e-05 -0.00174735 0
-5.84551e-05 -0.00065074 0
-3.32368e-05 -0.00173855 0
-7.50578e-05 -0.000655894 0
-5.20591e-05 -0.00174576 0
-4.29855e-05 -0.000645417 0
-1.94806e-05 -0.00172583 0
-5.84551e-05 -0.00065074 0
-3.32368e-05 -0.00173855 0
-5.19643e-07 -0.000642645 0
2.05751e-05 -0.00169596 0
-4.29855e-05 -0.000645417 0
-1.94806e-05 -0.00172583 0
3.1626e-05 -0.000640534 0
5.87631e-05 -0.0016538 0
-5.19643e-07 -0.000642645 0
2.05751e-05 -0.00169596 0
9.13845e-05 -0.000637316 0
0.000122696 -0.00158076 0
3.1626e-05 -0.000640534 0
5.87631e-05 -0.0016538 0
0.000120049 -0.000634611 0
0.000154035 -0.00147979 0
9.13845e-05 -0.000637316 0
0.000122696 -0.00158076 0
0.000134107 -0.000631612 0
0.000182313 -0.00132426 0
0.000120049 -0.000634611 0
0.000154035 -0.00147979 0
5.34717e-05 -0.00062891 0
0.000128619 -0.00112025 0
0.000134107 -0.000631612 0
0.000182313 -0.00132426 0
-0.000104677 -0.000624533 0
-3.06797e-06 -0.000833973 0
5.34717e-05 -0.00062891 0
0.000128619 -0.00112025 0
-0.000104677 -0.000624533 0
-0.000474103 -0.000619435 0
-3.06797e-06 -0.000833973 0
-0.000321349 -0.000477625 0
-0.00107883 -0.000603588 0
-0.00086985 -8.44422e-06 0
-0.000474103 -0.000619435 0
-0.000321349 -0.000477625 0
-0.00211121 -0.000585044 0
-0.00183013 0.000568711 0
-0.00107883 -0.000603588 0
-0.00086985 -8.44422e-06 0
-0.00370252 -0.000554197 0
-0.00337719 0.00132929 0
-0.00211121 -0.000585044 0
-0.00183013 0.000568711 0
-0.00615059 -0.000522588 0
-0.00576449 0.00224896 0
-0.00370252 -0.000554197 0
-0.00337719 0.00132929 0
-0.00975268 -0.00047256 0
-0.00935732 0.00345213 0
-0.00615059 -0.000522588 0
-0.00576449 0.00224896 0
-0.00975268 -0.00047256 0
-0.0149063 -0.000423463 0
-0.00935732 0.00345213 0
-0.0144766 0.00494241 0
-0.0149063 -0.000423463 0
-0.0221692 -0.000351419 0
-0.0144766 0.00494241 0
-0.0217873 0.0069299 0
-0.0319552 -0.000296151 0
-0.0315597 0.00934578 0
-0.0221692 -0.000351419 0
-0.0217873 0.0069299 0
-0.0451727 -0.000199373 0
-0.044915 0.0125815 0
-0.0319552 -0.000296151 0
-0.0315597 0.00934578 0
-0.0619422 -0.000165378 0
-0.0616738 0.0162894 0
-0.0451727 -0.000199373 0
-0.044915 0.0125815 0
-0.0835719 -3.2378e-05 0
-0.0836286 0.0207966 0
-0.0619422 -0.000165378 0
-0.0616738 0.0162894 0
-0.109303 -5.48124e-05 0
-0.109254 0.0256239 0
-0.0835719 -3.2378e-05 0
-0.0836286 0.0207966 0
-0.141557 0.000182622 0
-0.14208 0.0317464 0
-0.109303 -5.48124e-05 0
-0.109254 0.0256239 0
-0.178267 6.81451e-05 0
-0.178073 0.0380072 0
-0.141557 0.000182622 0
-0.14208 0.0317464 0
-0.224276 0.000501128 0
-0.22387 0.0475597 0
-0.178267 6.81451e-05 0
-0.178073 0.0380072 0
-0.275709 0.00120917 0
-0.272378 0.053085 0
-0.224276 0.000501128 0
-0.22387 0.0475597 0
-0.32694 7.1933e-05 0
-0.327358 0.0446704 0
-0.275709 0.00120917 0
-0.272378 0.053085 0
-0.32694 7.1933e-05 0
-0.347265 0.000800832 0
-0.327358 0.0446704 0
-0.370156 0.0146103 0
-0.221979 -0.00436845 0
-0.205571 -0.0392769 0
-0.279028 -0.00173039 0
-0.262953 -0.0781557 0
-1.36127e-05 -0.00039309 0
-3.93259e-05 -0.000859924 0
1.65297e-06 -0.000383743 0
-2.3596e-05 -0.000861687 0
-1.36127e-05 -0.00039309 0
-3.55997e-05 -0.000399205 0
-3.93259e-05 -0.000859924 0
-4.74878e-05 -0.00086039 0
-5.28084e-05 -0.000402882 0
-6.13178e-05 -0.000860083 0
-3.55997e-05 -0.000399205 0
-4.74878e-05 -0.00086039 0
-5.28084e-05 -0.000402882 0
-6.15328e-05 -0.000406172 0
-6.13178e-05 -0.000860083 0
-7.28217e-05 -0.000860649 0
-6.15328e-05 -0.000406172 0
-6.92709e-05 -0.000409034 0
-7.28217e-05 -0.000860649 0
-8.06647e-05 -0.000863023 0
-6.92709e-05 -0.000409034 0
-7.59009e-05 -0.00041108 0
-8.06647e-05 -0.000863023 0
-8.46405e-05 -0.000867086 0
-7.59009e-05 -0.00041108 0
-7.94492e-05 -0.000411581 0
-8.46405e-05 -0.000867086 0
-9.06751e-05 -0.000872269 0
-7.94492e-05 -0.000411581 0
-8.31949e-05 -0.000414009 0
-9.06751e-05 -0.000872269 0
-9.71672e-05 -0.000876767 0
-8.31949e-05 -0.000414009 0
-8.96602e-05 -0.000416277 0
-9.71672e-05 -0.000876767 0
-0.000101006 -0.000880482 0
-8.96602e-05 -0.000416277 0
-9.74216e-05 -0.000418294 0
-0.000101006 -0.000880482 0
-0.000105428 -0.000883998 0
-9.74216e-05 -0.000418294 0
-0.000105049 -0.000419462 0
-0.000105428 -0.000883998 0
-0.000110348 -0.000886616 0
-0.000105049 -0.000419462 0
-0.000113676 -0.000420633 0
-0.000110348 -0.000886616 0
-0.000116654 -0.000888751 0
-0.000113676 -0.000420633 0
-0.000121909 -0.000421009 0
-0.000116654 -0.000888751 0
-0.000122515 -0.000890358 0
-0.000121909 -0.000421009 0
-0.000130645 -0.000421372 0
-0.000122515 -0.000890358 0
-0.000129915 -0.000891895 0
-0.000130645 -0.000421372 0
-0.000137169 -0.000421528 0
-0.000129915 -0.000891895 0
-0.000136461 -0.000893689 0
-0.000137169 -0.000421528 0
-0.000141534 -0.000421753 0
-0.000136461 -0.000893689 0
-0.000144184 -0.000896122 0
-0.000141534 -0.000421753 0
-0.000145084 -0.000422503 0
-0.000144184 -0.000896122 0
-0.000149562 -0.000898065 0
-0.000145084 -0.000422503 0
-0.000148755 -0.000423417 0
-0.000149562 -0.000898065 0
-0.000152607 -0.000900676 0
-0.000148755 -0.000423417 0
-0.000149367 -0.000424394 0
-0.000152607 -0.000900676 0
-0.000152383 -0.000903502 0
-0.000149367 -0.000424394 0
-0.000149927 -0.000425182 0
-0.000152383 -0.000903502 0
-0.000151376 -0.000906349 0
-0.000149927 -0.000425182 0
-0.000145898 -0.000425515 0
-0.000151376 -0.000906349 0
-0.000146891 -0.000909361 0
-0.000145898 -0.000425515 0
-0.000140511 -0.000426026 0
-0.000146891 -0.000909361 0
-0.00014152 -0.000911819 0
-0.000140511 -0.000426026 0
-0.000130821 -0.000426111 0
-0.00014152 -0.000911819 0
-0.000132063 -0.0009137 0
-0.000130821 -0.000426111 0
-0.000121707 -0.000426101 0
-0.000132063 -0.0009137 0
-0.000123733 -0.000914512 0
0.174793 -0.166776 0
0.201415 -0.0880876 0
0.316974 -0.305462 0
0.318051 -0.0969694 0
0.174793 -0.166776 0
0.118464 -0.116848 0
0.201415 -0.0880876 0
0.138033 -0.0787208 0
0.118464 -0.116848 0
0.0889293 -0.0883608 0
0.138033 -0.0787208 0
0.10211 -0.0657421 0
0.0706283 -0.0704639 0
0.0791573 -0.0557718 0
0.0889293 -0.0883608 0
0.10211 -0.0657421 0
0.0706283 -0.0704639 0
0.0581006 -0.0581848 0
0.0791573 -0.0557718 0
0.0640525 -0.0478461 0
0.0581006 -0.0581848 0
0.0488874 -0.0490784 0
0.0640525 -0.0478461 0
0.05294 -0.0416012 0
0.0488874 -0.0490784 0
0.0417796 -0.0420489 0
0.05294 -0.0416012 0
0.0446482 -0.0364424 0
0.0417796 -0.0420489 0
0.0359116 -0.0362339 0
0.0446482 -0.0364424 0
0.0378664 -0.0319669 0
0.0309505 -0.0313052 0
0.032282 -0.0279947 0
0.0359116 -0.0362339 0
0.0378664 -0.0319669 0
0.026562 -0.0269519 0
0.0274038 -0.0243699 0
0.0309505 -0.0313052 0
0.032282 -0.0279947 0
0.026562 -0.0269519 0
0.0226727 -0.0230821 0
0.0274038 -0.0243699 0
0.0231607 -0.021064 0
0.0226727 -0.0230821 0
0.0191776 -0.0196072 0
0.0231607 -0.021064 0
0.0193883 -0.0180247 0
0.0191776 -0.0196072 0
0.016067 -0.0165047 0
0.0193883 -0.0180247 0
0.0160702 -0.0152741 0
0.016067 -0.0165047 0
0.0133228 -0.0137689 0
0.0160702 -0.0152741 0
0.0131583 -0.0128103 0
0.0133228 -0.0137689 0
0.0109294 -0.0113789 0
0.0131583 -0.0128103 0
0.0106408 -0.0106357 0
0.0109294 -0.0113789 0
0.00889001 -0.00934241 0
0.0106408 -0.0106357 0
0.00850602 -0.00876618 0
0.00889001 -0.00934241 0
0.00715965 -0.00761411 0
0.00850602 -0.00876618 0
0.00670291 -0.00717583 0
0.00575046 -0.006196 0
0.00523681 -0.00586866 0
0.00715965 -0.00761411 0
0.00670291 -0.00717583 0
0.00458479 -0.00502434 0
0.00400266 -0.00477987 0
0.00575046 -0.006196 0
0.00523681 -0.00586866 0
0.00458479 -0.00502434 0
0.00368007 -0.00412556 0
0.00400266 -0.00477987 0
0.00306471 -0.00391779 0
0.00292672 -0.00338794 0
0.00229636 -0.00320965 0
0.00368007 -0.00412556 0
0.00306471 -0.00391779 0
0.00237632 -0.00286713 0
0.00179033 -0.00269044 0
0.00292672 -0.00338794 0
0.00229636 -0.00320965 0
0.00237632 -0.00286713 0
0.00189658 -0.00238834 0
0.00179033 -0.00269044 0
0.0013296 -0.00229102 0
0.00163822 -0.00211583 0
0.00105608 -0.00205168 0
0.00189658 -0.00238834 0
0.0013296 -0.00229102 0
0.00163822 -0.00211583 0
0.00137998 -0.00185859 0
0.00105608 -0.00205168 0
0.000767765 -0.00179599 0
0.00137998 -0.00185859 0
0.00126977 -0.00176416 0
0.000767765 -0.00179599 0
0.000726199 -0.00169105 0
0.00126977 -0.00176416 0
0.00101756 -0.00151417 0
0.000726199 -0.00169105 0
0.000544402 -0.00138893 0
0.00101756 -0.00151417 0
0.000771684 -0.00123381 0
0.000544402 -0.00138893 0
0.000694529 -0.00146155 0
0.000771684 -0.00123381 0
0.000534971 -0.00085394 0
0.000694529 -0.00146155 0
0.000422294 -0.000771937 0
0.000534971 -0.00085394 0
0.000261139 -0.000515568 0
0.000422294 -0.000771937 0
0.000295307 -0.00103316 0
0.000261139 -0.000515568 0
0.000561002 -0.000283414 0
0.000295307 -0.00103316 0
0.000442312 -0.000809539 0
0.000561002 -0.000283414 0
0.000436165 -0.000374039 0
0.000442312 -0.000809539 0
6.03383e-06 -0.000867146 0
0.000436165 -0.000374039 0
0.000306408 -0.000450726 0
6.03383e-06 -0.000867146 0
0.000218813 -0.000806545 0
0.000306408 -0.000450726 0
-1.68025e-05 -0.000403558 0
0.000218813 -0.000806545 0
3.38882e-05 -0.000912686 0
-0.000132063 -0.0009137 0
-0.000123733 -0.000914512 0
-0.000133661 -0.000574697 0
-0.000126063 -0.00057811 0
-0.000133661 -0.000574697 0
-0.000126063 -0.00057811 0
-0.00013847 -0.000959933 0
-0.000131597 -0.000962716 0
-0.00013847 -0.000959933 0
-0.000131597 -0.000962716 0
-0.00014566 -0.000723535 0
-0.000138213 -0.000727721 0
-0.00014566 -0.000723535 0
-0.000138213 -0.000727721 0
-0.000153779 -0.00103179 0
-0.000148499 -0.00103711 0
-0.000153779 -0.00103179 0
-0.000148499 -0.00103711 0
-0.000164776 -0.000879554 0
-0.000158794 -0.000885442 0
-0.000164776 -0.000879554 0
-0.000158794 -0.000885442 0
-0.00017579 -0.00113448 0
-0.000171387 -0.00114175 0
-0.000190124 -0.00105474 0
-0.00017579 -0.00113448 0
-0.000185407 -0.00106295 0
-0.000171387 -0.00114175 0
-0.000190124 -0.00105474 0
-0.000185407 -0.00106295 0
-0.000205773 -0.00127437 0
-0.000201853 -0.00128373 0
-0.000205773 -0.00127437 0
-0.000201853 -0.00128373 0
-0.000224723 -0.00125667 0
-0.00022105 -0.00126771 0
-0.000224723 -0.00125667 0
-0.00022105 -0.00126771 0
-0.000247215 -0.00145009 0
-0.000244828 -0.00146253 0
-0.000247215 -0.00145009 0
-0.000244828 -0.00146253 0
-0.000273892 -0.00148018 0
-0.000273232 -0.00149504 0
-0.000273892 -0.00148018 0
-0.000273232 -0.00149504 0
-0.000306767 -0.00164251 0
-0.00031111 -0.00165982 0
-0.000306767 -0.00164251 0
-0.00031111 -0.00165982 0
-0.000344872 -0.00169572 0
-0.000356456 -0.00171561 0
-0.000344872 -0.00169572 0
-0.000356456 -0.00171561 0
-0.000389297 -0.00180406 0
-0.000413387 -0.00182652 0
-0.000389297 -0.00180406 0
-0.000413387 -0.00182652 0
-0.000435648 -0.00184435 0
-0.000476594 -0.00186743 0
-0.000435648 -0.00184435 0
-0.000476594 -0.00186743 0
-0.000479899 -0.00186379 0
-0.000541588 -0.00188509 0
-0.000479899 -0.00186379 0
-0.000541588 -0.00188509 0
-0.000511716 -0.00185988 0
-0.000593922 -0.00187434 0
-0.000511716 -0.00185988 0
-0.000593922 -0.00187434 0
-0.000522204 -0.0017714 0
-0.000617822 -0.0017746 0
-0.000522204 -0.0017714 0
-0.000617822 -0.0017746 0
-0.000504241 -0.00173574 0
-0.000598763 -0.00172449 0
-0.000504241 -0.00173574 0
-0.000598763 -0.00172449 0
-0.000459481 -0.00156894 0
-0.000538679 -0.00154739 0
-0.000459481 -0.00156894 0
-0.000538679 -0.00154739 0
-0.000397635 -0.00156317 0
-0.000455142 -0.00153531 0
-0.000397635 -0.00156317 0
-0.000455142 -0.00153531 0
-0.000328184 -0.00135805 0
-0.000364384 -0.00133021 0
-0.000328184 -0.00135805 0
-0.000364384 -0.00133021 0
-0.000264664 -0.00143423 0
-0.000283317 -0.00140784 0
-0.000264664 -0.00143423 0
-0.000283317 -0.00140784 0
-0.000204156 -0.00119062 0
-0.000210897 -0.00117029 0
-0.000204156 -0.00119062 0
-0.000210897 -0.00117029 0
-0.000163295 -0.00137769 0
-0.000164822 -0.00135934 0
-0.000163295 -0.00137769 0
-0.000164822 -0.00135934 0
-0.00012033 -0.00106435 0
-0.000116986 -0.00104922 0
-0.00012033 -0.00106435 0
-0.000116986 -0.00104922 0
-9.27809e-05 -0.00140531 0
-8.96558e-05 -0.00139257 0
-9.27809e-05 -0.00140531 0
-8.96558e-05 -0.00139257 0
-6.12532e-05 -0.00096175 0
-5.54012e-05 -0.000953036 0
-6.12532e-05 -0.00096175 0
-5.54012e-05 -0.000953036 0
-5.3364e-05 -0.00151299 0
-4.8485e-05 -0.00150872 0
-5.3364e-05 -0.00151299 0
-4.8485e-05 -0.00150872 0
-4.49288e-05 -0.000844573 0
-4.04449e-05 -0.000841007 0
-4.49288e-05 -0.000844573 0
-4.04449e-05 -0.000841007 0
-4.62442e-05 -0.00169841 0
-4.0874e-05 -0.00169793 0
0.201415 -0.0880876 0
0.183961 -0.0134172 0
0.318051 -0.0969694 0
0.23345 0.0348372 0
0.201415 -0.0880876 0
0.138033 -0.0787208 0
0.183961 -0.0134172 0
0.135324 -0.0293517 0
0.138033 -0.0787208 0
0.10211 -0.0657421 0
0.135324 -0.0293517 0
0.104192 -0.0359576 0
0.0791573 -0.0557718 0
0.0816976 -0.0350592 0
0.10211 -0.0657421 0
0.104192 -0.0359576 0
0.0791573 -0.0557718 0
0.0640525 -0.0478461 0
0.0816976 -0.0350592 0
0.0665964 -0.0337099 0
0.0640525 -0.0478461 0
0.05294 -0.0416012 0
0.0665964 -0.0337099 0
0.0550251 -0.0309932 0
0.05294 -0.0416012 0
0.0446482 -0.0364424 0
0.0550251 -0.0309932 0
0.0463793 -0.0285029 0
0.0446482 -0.0364424 0
0.0378664 -0.0319669 0
0.0463793 -0.0285029 0
0.0392221 -0.0257049 0
0.032282 -0.0279947 0
0.0333353 -0.0230585 0
0.0378664 -0.0319669 0
0.0392221 -0.0257049 0
0.0274038 -0.0243699 0
0.0281729 -0.0204015 0
0.032282 -0.0279947 0
0.0333353 -0.0230585 0
0.0274038 -0.0243699 0
0.0231607 -0.021064 0
0.0281729 -0.0204015 0
0.0237079 -0.0178477 0
0.0231607 -0.021064 0
0.0193883 -0.0180247 0
0.0237079 -0.0178477 0
0.0197338 -0.0153926 0
0.0193883 -0.0180247 0
0.0160702 -0.0152741 0
0.0197338 -0.0153926 0
0.0162763 -0.0131013 0
0.0160702 -0.0152741 0
0.0131583 -0.0128103 0
0.0162763 -0.0131013 0
0.0132488 -0.0109933 0
0.0131583 -0.0128103 0
0.0106408 -0.0106357 0
0.0132488 -0.0109933 0
0.0106515 -0.0091129 0
0.0106408 -0.0106357 0
0.00850602 -0.00876618 0
0.0106515 -0.0091129 0
0.00843259 -0.00747056 0
0.00850602 -0.00876618 0
0.00670291 -0.00717583 0
0.00843259 -0.00747056 0
0.00658626 -0.00606203 0
0.00523681 -0.00586866 0
0.00508788 -0.00486416 0
0.00670291 -0.00717583 0
0.00658626 -0.00606203 0
0.00400266 -0.00477987 0
0.00387885 -0.00388962 0
0.00523681 -0.00586866 0
0.00508788 -0.00486416 0
0.00400266 -0.00477987 0
0.00306471 -0.00391779 0
0.00387885 -0.00388962 0
0.00294132 -0.0031129 0
0.00229636 -0.00320965 0
0.00216698 -0.00253695 0
0.00306471 -0.00391779 0
0.00294132 -0.0031129 0
0.00179033 -0.00269044 0
0.001604 -0.00208379 0
0.00229636 -0.00320965 0
0.00216698 -0.00253695 0
0.00179033 -0.00269044 0
0.0013296 -0.00229102 0
0.001604 -0.00208379 0
0.00108963 -0.00168442 0
0.00105608 -0.00205168 0
0.000817646 -0.0013797 0
0.0013296 -0.00229102 0
0.00108963 -0.00168442 0
0.00105608 -0.00205168 0
0.000767765 -0.00179599 0
0.000817646 -0.0013797 0