# vtk DataFile Version 3.0
#This file was generated by the deal.II library on 2016/12/20 at 10:56:33
ASCII
DATASET UNSTRUCTURED_GRID

POINTS 7108 double
-0.970149 0.5 0
-0.964976 0.485465 0
-0.940299 0.5 0
-0.945882 0.477585 0
-0.910448 0.5 0
-0.940299 0.5 0
-0.919731 0.466897 0
-0.945882 0.477585 0
0.12 -0.5 0
0.15 -0.5 0
0.119014 -0.4708 0
0.15 -0.471429 0
0.11755 -0.441479 0
0.119014 -0.4708 0
0.15 -0.442857 0
0.15 -0.471429 0
0.117242 -0.412206 0
0.11755 -0.441479 0
0.15 -0.414286 0
0.15 -0.442857 0
0.118129 -0.383064 0
0.117242 -0.412206 0
0.15 -0.385714 0
0.15 -0.414286 0
0.12021 -0.354337 0
0.118129 -0.383064 0
0.15 -0.357143 0
0.15 -0.385714 0
0.121793 -0.32584 0
0.12021 -0.354337 0
0.15 -0.328571 0
0.15 -0.357143 0
0.122717 -0.296869 0
0.121793 -0.32584 0
0.15 -0.3 0
0.15 -0.328571 0
0.123759 -0.266752 0
0.122717 -0.296869 0
0.153091 -0.267708 0
0.15 -0.3 0
0.18456 -0.26795 0
0.153091 -0.267708 0
0.183333 -0.3 0
0.15 -0.3 0
0.216606 -0.268111 0
0.18456 -0.26795 0
0.216667 -0.3 0
0.183333 -0.3 0
0.24835 -0.26841 0
0.216606 -0.268111 0
0.25 -0.3 0
0.216667 -0.3 0
0.278782 -0.268564 0
0.24835 -0.26841 0
0.279437 -0.298917 0
0.25 -0.3 0
0.279638 -0.328111 0
0.279437 -0.298917 0
0.25 -0.328571 0
0.25 -0.3 0
0.27971 -0.356801 0
0.279638 -0.328111 0
0.25 -0.357143 0
0.25 -0.328571 0
0.279677 -0.385395 0
0.27971 -0.356801 0
0.25 -0.385714 0
0.25 -0.357143 0
0.279641 -0.413938 0
0.279677 -0.385395 0
0.25 -0.414286 0
0.25 -0.385714 0
0.279666 -0.442534 0
0.279641 -0.413938 0
0.25 -0.442857 0
0.25 -0.414286 0
0.279811 -0.471266 0
0.279666 -0.442534 0
0.25 -0.471429 0
0.25 -0.442857 0
0.28 -0.5 0
0.279811 -0.471266 0
0.25 -0.5 0
0.25 -0.471429 0
0.970149 0.5 0
0.970096 0.46978 0
1 0.5 0
1 0.469697 0
0.940299 0.5 0
0.940231 0.46984 0
0.970149 0.5 0
0.970096 0.46978 0
0.910448 0.5 0
0.910371 0.469856 0
0.940299 0.5 0
0.940231 0.46984 0
0.880597 0.5 0
0.880527 0.469909 0
0.910448 0.5 0
0.910371 0.469856 0
0.850746 0.5 0
0.850684 0.469926 0
0.880597 0.5 0
0.880527 0.469909 0
0.820896 0.5 0
0.820842 0.469978 0
0.850746 0.5 0
0.850684 0.469926 0
0.791045 0.5 0
0.791001 0.470016 0
0.820896 0.5 0
0.820842 0.469978 0
0.761194 0.5 0
0.761159 0.470055 0
0.791045 0.5 0
0.791001 0.470016 0
0.731343 0.5 0
0.731316 0.470091 0
0.761194 0.5 0
0.761159 0.470055 0
0.701493 0.5 0
0.701472 0.470118 0
0.731343 0.5 0
0.731316 0.470091 0
0.671642 0.5 0
0.671627 0.470134 0
0.701493 0.5 0
0.701472 0.470118 0
0.641791 0.5 0
0.64178 0.470142 0
0.671642 0.5 0
0.671627 0.470134 0
0.641791 0.5 0
0.61194 0.5 0
0.64178 0.470142 0
0.611934 0.470065 0
0.58209 0.5 0
0.582089 0.470002 0
0.61194 0.5 0
0.611934 0.470065 0
0.552239 0.5 0
0.552248 0.469853 0
0.58209 0.5 0
0.582089 0.470002 0
0.522388 0.5 0
0.522413 0.469718 0
0.552239 0.5 0
0.552248 0.469853 0
0.492537 0.5 0
0.492577 0.469656 0
0.522388 0.5 0
0.522413 0.469718 0
0.462687 0.5 0
0.462743 0.469571 0
0.492537 0.5 0
0.492577 0.469656 0
0.432836 0.5 0
0.432895 0.46963 0
0.462687 0.5 0
0.462743 0.469571 0
0.402985 0.5 0
0.403046 0.469669 0
0.432836 0.5 0
0.432895 0.46963 0
0.373134 0.5 0
0.373191 0.469745 0
0.402985 0.5 0
0.403046 0.469669 0
0.343284 0.5 0
0.343335 0.469723 0
0.373134 0.5 0
0.373191 0.469745 0
0.313433 0.5 0
0.313478 0.469741 0
0.343284 0.5 0
0.343335 0.469723 0
0.283582 0.5 0
0.283622 0.469783 0
0.313433 0.5 0
0.313478 0.469741 0
0.253731 0.5 0
0.253768 0.469742 0
0.283582 0.5 0
0.283622 0.469783 0
0.223881 0.5 0
0.223918 0.469737 0
0.253731 0.5 0
0.253768 0.469742 0
0.19403 0.5 0
0.194064 0.46981 0
0.223881 0.5 0
0.223918 0.469737 0
0.164179 0.5 0
0.16421 0.469881 0
0.19403 0.5 0
0.194064 0.46981 0
0.134328 0.5 0
0.134355 0.46994 0
0.164179 0.5 0
0.16421 0.469881 0
0.104478 0.5 0
0.1045 0.469997 0
0.134328 0.5 0
0.134355 0.46994 0
0.074627 0.5 0
0.074645 0.470051 0
0.104478 0.5 0
0.1045 0.469997 0
0.044776 0.5 0
0.04479 0.470093 0
0.074627 0.5 0
0.074645 0.470051 0
0.014925 0.5 0
0.014935 0.47012 0
0.044776 0.5 0
0.04479 0.470093 0
-0.014925 0.5 0
-0.014918 0.470135 0
0.014925 0.5 0
0.014935 0.47012 0
-0.044776 0.5 0
-0.044771 0.470143 0
-0.014925 0.5 0
-0.014918 0.470135 0
-0.074627 0.5 0
-0.074623 0.470146 0
-0.044776 0.5 0
-0.044771 0.470143 0
-0.104478 0.5 0
-0.104496 0.469979 0
-0.074627 0.5 0
-0.074623 0.470146 0
-0.134328 0.5 0
-0.134359 0.469935 0
-0.104478 0.5 0
-0.104496 0.469979 0
-0.164179 0.5 0
-0.164225 0.469839 0
-0.134328 0.5 0
-0.134359 0.469935 0
-0.164179 0.5 0
-0.19403 0.5 0
-0.164225 0.469839 0
-0.194083 0.469797 0
-0.223881 0.5 0
-0.22394 0.469753 0
-0.19403 0.5 0
-0.194083 0.469797 0
-0.253731 0.5 0
-0.253798 0.469819 0
-0.223881 0.5 0
-0.22394 0.469753 0
-0.283582 0.5 0
-0.283647 0.470019 0
-0.253731 0.5 0
-0.253798 0.469819 0
-0.313433 0.5 0
-0.313491 0.470151 0
-0.283582 0.5 0
-0.283647 0.470019 0
-0.343284 0.5 0
-0.343348 0.470381 0
-0.313433 0.5 0
-0.313491 0.470151 0
-0.343284 0.5 0
-0.373134 0.5 0
-0.343348 0.470381 0
-0.373195 0.470395 0
-0.373134 0.5 0
-0.402985 0.5 0
-0.373195 0.470395 0
-0.403049 0.470404 0
-0.432836 0.5 0
-0.432937 0.470297 0
-0.402985 0.5 0
-0.403049 0.470404 0
-0.462687 0.5 0
-0.462848 0.469995 0
-0.432836 0.5 0
-0.432937 0.470297 0
-0.492537 0.5 0
-0.492807 0.469765 0
-0.462687 0.5 0
-0.462848 0.469995 0
-0.522388 0.5 0
-0.52276 0.46958 0
-0.492537 0.5 0
-0.492807 0.469765 0
-0.552239 0.5 0
-0.55273 0.469652 0
-0.522388 0.5 0
-0.52276 0.46958 0
-0.58209 0.5 0
-0.582662 0.469731 0
-0.552239 0.5 0
-0.55273 0.469652 0
-0.61194 0.5 0
-0.612594 0.469999 0
-0.58209 0.5 0
-0.582662 0.469731 0
-0.641791 0.5 0
-0.642647 0.470419 0
-0.61194 0.5 0
-0.612594 0.469999 0
-0.671642 0.5 0
-0.672638 0.470543 0
-0.641791 0.5 0
-0.642647 0.470419 0
-0.701493 0.5 0
-0.702968 0.4698 0
-0.671642 0.5 0
-0.672638 0.470543 0
-0.701493 0.5 0
-0.731343 0.5 0
-0.702968 0.4698 0
-0.733232 0.468149 0
-0.850746 0.5 0
-0.850723 0.467038 0
-0.820896 0.5 0
-0.822797 0.47207 0
0.31 -0.5 0
0.309694 -0.471123 0
0.28 -0.5 0
0.279811 -0.471266 0
0.31 -0.5 0
0.34 -0.5 0
0.309694 -0.471123 0
0.339686 -0.471033 0
0.37 -0.5 0
0.369721 -0.471055 0
0.34 -0.5 0
0.339686 -0.471033 0
0.37 -0.5 0
0.4 -0.5 0
0.369721 -0.471055 0
0.399756 -0.470957 0
0.4 -0.5 0
0.43 -0.5 0
0.399756 -0.470957 0
0.429805 -0.470822 0
0.43 -0.5 0
0.46 -0.5 0
0.429805 -0.470822 0
0.459835 -0.470712 0
0.46 -0.5 0
0.49 -0.5 0
0.459835 -0.470712 0
0.489873 -0.470554 0
0.49 -0.5 0
0.52 -0.5 0
0.489873 -0.470554 0
0.519906 -0.470379 0
0.52 -0.5 0
0.55 -0.5 0
0.519906 -0.470379 0
0.54993 -0.470248 0
0.55 -0.5 0
0.58 -0.5 0
0.54993 -0.470248 0
0.579948 -0.470155 0
0.58 -0.5 0
0.61 -0.5 0
0.579948 -0.470155 0
0.609962 -0.470091 0
0.61 -0.5 0
0.64 -0.5 0
0.609962 -0.470091 0
0.639972 -0.47005 0
0.64 -0.5 0
0.67 -0.5 0
0.639972 -0.47005 0
0.66998 -0.470026 0
0.67 -0.5 0
0.7 -0.5 0
0.66998 -0.470026 0
0.699986 -0.470013 0
0.7 -0.5 0
0.73 -0.5 0
0.699986 -0.470013 0
0.72999 -0.470006 0
0.73 -0.5 0
0.76 -0.5 0
0.72999 -0.470006 0
0.759994 -0.470003 0
0.76 -0.5 0
0.79 -0.5 0
0.759994 -0.470003 0
0.78998 -0.469916 0
0.79 -0.5 0
0.82 -0.5 0
0.78998 -0.469916 0
0.819956 -0.469877 0
0.82 -0.5 0
0.85 -0.5 0
0.819956 -0.469877 0
0.849929 -0.469833 0
0.85 -0.5 0
0.88 -0.5 0
0.849929 -0.469833 0
0.879924 -0.469805 0
0.88 -0.5 0
0.91 -0.5 0
0.879924 -0.469805 0
0.909913 -0.469792 0
0.91 -0.5 0
0.94 -0.5 0
0.909913 -0.469792 0
0.939922 -0.469775 0
0.94 -0.5 0
0.97 -0.5 0
0.939922 -0.469775 0
0.969956 -0.46974 0
0.97 -0.5 0
1 -0.5 0
0.969956 -0.46974 0
1 -0.469697 0
-0.808511 0.308511 0
-0.786305 0.329477 0
-0.829787 0.329787 0
-0.806205 0.352141 0
-0.765957 0.265957 0
-0.744681 0.244681 0
-0.745195 0.286345 0
-0.723868 0.265704 0
-0.744681 0.244681 0
-0.723404 0.223404 0
-0.723868 0.265704 0
-0.702394 0.245107 0
-0.702128 0.202128 0
-0.680976 0.2243 0
-0.723404 0.223404 0
-0.702394 0.245107 0
-0.702128 0.202128 0
-0.680851 0.180851 0
-0.680976 0.2243 0
-0.659597 0.203254 0
-0.680851 0.180851 0
-0.659574 0.159574 0
-0.659597 0.203254 0
-0.638233 0.18203 0
-0.638298 0.138298 0
-0.616915 0.16063 0
-0.659574 0.159574 0
-0.638233 0.18203 0
-0.617021 0.117021 0
-0.595665 0.139192 0
-0.638298 0.138298 0
-0.616915 0.16063 0
-0.617021 0.117021 0
-0.595745 0.095745 0
-0.595665 0.139192 0
-0.574431 0.117764 0
-0.595745 0.095745 0
-0.574468 0.074468 0
-0.574431 0.117764 0
-0.553204 0.096309 0
-0.553191 0.053191 0
-0.53184 0.075023 0
-0.574468 0.074468 0
-0.553204 0.096309 0
-0.553191 0.053191 0
-0.531915 0.031915 0
-0.53184 0.075023 0
-0.510492 0.053733 0
-0.531915 0.031915 0
-0.510638 0.010638 0
-0.510492 0.053733 0
-0.489127 0.032461 0
-0.510638 0.010638 0
-0.489362 -0.010638 0
-0.489127 0.032461 0
-0.467791 0.011178 0
-0.489362 -0.010638 0
-0.468085 -0.031915 0
-0.467791 0.011178 0
-0.446536 -0.010172 0
-0.446809 -0.053191 0
-0.42524 -0.031466 0
-0.468085 -0.031915 0
-0.446536 -0.010172 0
-0.425532 -0.074468 0
-0.404012 -0.052824 0
-0.446809 -0.053191 0
-0.42524 -0.031466 0
-0.425532 -0.074468 0
-0.404255 -0.095745 0
-0.404012 -0.052824 0
-0.382783 -0.074175 0
-0.404255 -0.095745 0
-0.382979 -0.117021 0
-0.382783 -0.074175 0
-0.361545 -0.095511 0
-0.382979 -0.117021 0
-0.361702 -0.138298 0
-0.361545 -0.095511 0
-0.340288 -0.116831 0
-0.361702 -0.138298 0
-0.340426 -0.159574 0
-0.340288 -0.116831 0
-0.319034 -0.138159 0
-0.340426 -0.159574 0
-0.319149 -0.180851 0
-0.319034 -0.138159 0
-0.297766 -0.159484 0
-0.319149 -0.180851 0
-0.297872 -0.202128 0
-0.297766 -0.159484 0
-0.276489 -0.180797 0
-0.297872 -0.202128 0
-0.276596 -0.223404 0
-0.276489 -0.180797 0
-0.255087 -0.202105 0
-0.255319 -0.244681 0
-0.233674 -0.223466 0
-0.276596 -0.223404 0
-0.255087 -0.202105 0
-0.234043 -0.265957 0
-0.212119 -0.244916 0
-0.255319 -0.244681 0
-0.233674 -0.223466 0
-0.234043 -0.265957 0
-0.212766 -0.287234 0
-0.212119 -0.244916 0
-0.190657 -0.266392 0
-0.191489 -0.308511 0
-0.169261 -0.287934 0
-0.212766 -0.287234 0
-0.190657 -0.266392 0
-0.170213 -0.329787 0
-0.147854 -0.309624 0
-0.191489 -0.308511 0
-0.169261 -0.287934 0
-0.170213 -0.329787 0
-0.148936 -0.351064 0
-0.147854 -0.309624 0
-0.126431 -0.331364 0
-0.12766 -0.37234 0
[...]
POINT_DATA 7108
VECTORS momentum double
0.0025406 -0.000644273 0
0.0028003 -0.00167339 0
0.00258546 -0.000844975 0
0.00713458 -0.00721093 0
0.00135691 -0.00343271 0
0.00258546 -0.000844975 0
0.0077279 -0.010096 0
0.00713458 -0.00721093 0
-0.000104958 -0.000423497 0
2.46954e-05 -0.000402754 0
-3.34294e-05 -0.000728567 0
3.36832e-05 -0.000731024 0
-0.000151597 -0.000217302 0
-3.34294e-05 -0.000728567 0
3.9599e-05 -0.000202677 0
3.36832e-05 -0.000731024 0
4.79359e-05 -0.000400781 0
-0.000151597 -0.000217302 0
3.94394e-06 -0.000463615 0
3.9599e-05 -0.000202677 0
4.92853e-05 -1.18887e-05 0
4.79359e-05 -0.000400781 0
-3.54141e-05 6.9277e-05 0
3.94394e-06 -0.000463615 0
0.000109906 -5.25508e-05 0
4.92853e-05 -1.18887e-05 0
4.35669e-05 -0.000212316 0
-3.54141e-05 6.9277e-05 0
-1.05732e-05 0.000167712 0
0.000109906 -5.25508e-05 0
-0.000148792 0.000486032 0
4.35669e-05 -0.000212316 0
0.000370817 9.31363e-05 0
-1.05732e-05 0.000167712 0
0.00048964 -0.000138652 0
-0.000148792 0.000486032 0
5.90193e-05 -6.85633e-06 0
0.000370817 9.31363e-05 0
0.000121729 -0.000339284 0
0.00048964 -0.000138652 0
4.40538e-05 -0.000797288 0
0.000121729 -0.000339284 0
0.000558507 -0.000618673 0
0.00048964 -0.000138652 0
-2.6211e-05 -0.000768489 0
4.40538e-05 -0.000797288 0
-0.000572462 -0.000591345 0
0.000558507 -0.000618673 0
-0.000138305 -0.000338252 0
-2.6211e-05 -0.000768489 0
-0.000461112 -0.000145523 0
-0.000572462 -0.000591345 0
-7.35939e-05 -2.07292e-05 0
-0.000138305 -0.000338252 0
-0.000334068 4.78231e-05 0
-0.000461112 -0.000145523 0
4.667e-05 0.00011906 0
-0.000334068 4.78231e-05 0
0.000123072 0.000460601 0
-0.000461112 -0.000145523 0
-7.12484e-05 -8.34376e-05 0
4.667e-05 0.00011906 0
-5.87653e-05 -0.000239874 0
0.000123072 0.000460601 0
2.95215e-05 4.93422e-05 0
-7.12484e-05 -8.34376e-05 0
2.65162e-05 0.000148203 0
-5.87653e-05 -0.000239874 0
-2.36432e-05 -0.000289178 0
2.95215e-05 4.93422e-05 0
-1.44365e-05 -0.000344305 0
2.65162e-05 0.000148203 0
1.36171e-05 -0.000115157 0
-2.36432e-05 -0.000289178 0
7.99393e-06 -8.5257e-05 0
-1.44365e-05 -0.000344305 0
-1.02382e-05 -0.000681022 0
1.36171e-05 -0.000115157 0
-5.01462e-06 -0.000698324 0
7.99393e-06 -8.5257e-05 0
1.49207e-05 -0.000402694 0
-1.02382e-05 -0.000681022 0
4.42594e-06 -0.000387236 0
-5.01462e-06 -0.000698324 0
-5.57561e-06 -0.000713757 0
-3.22664e-06 -0.00118835 0
-5.74446e-06 -0.00071429 0
-1.60448e-06 -0.00118816 0
-4.54753e-06 -0.000714106 0
-3.12144e-06 -0.00118848 0
-5.57561e-06 -0.000713757 0
-3.22664e-06 -0.00118835 0
-4.28389e-06 -0.000713591 0
-1.32172e-06 -0.00118802 0
-4.54753e-06 -0.000714106 0
-3.12144e-06 -0.00118848 0
-4.16455e-06 -0.000712616 0
-1.112e-06 -0.00118745 0
-4.28389e-06 -0.000713591 0
-1.32172e-06 -0.00118802 0
-4.31259e-06 -0.000711807 0
-6.02261e-07 -0.00118652 0
-4.16455e-06 -0.000712616 0
-1.112e-06 -0.00118745 0
-4.34799e-06 -0.00071046 0
-4.59803e-07 -0.0011855 0
-4.31259e-06 -0.000711807 0
-6.02261e-07 -0.00118652 0
-3.77897e-06 -0.000709716 0
-1.85737e-07 -0.00118427 0
-4.34799e-06 -0.00071046 0
-4.59803e-07 -0.0011855 0
-3.58595e-06 -0.00070844 0
5.52081e-07 -0.00118342 0
-3.77897e-06 -0.000709716 0
-1.85737e-07 -0.00118427 0
-2.12844e-06 -0.000707413 0
2.70232e-07 -0.00118258 0
-3.58595e-06 -0.00070844 0
5.52081e-07 -0.00118342 0
-9.25977e-07 -0.00070715 0
1.53158e-06 -0.00118202 0
-2.12844e-06 -0.000707413 0
2.70232e-07 -0.00118258 0
1.87379e-06 -0.000705946 0
3.52259e-06 -0.00118162 0
-9.25977e-07 -0.00070715 0
1.53158e-06 -0.00118202 0
5.65427e-06 -0.000705583 0
2.79723e-06 -0.00118242 0
1.87379e-06 -0.000705946 0
3.52259e-06 -0.00118162 0
5.65427e-06 -0.000705583 0
7.6582e-06 -0.000706472 0
2.79723e-06 -0.00118242 0
2.79191e-06 -0.00118328 0
1.04698e-05 -0.000707462 0
1.02715e-06 -0.00118566 0
7.6582e-06 -0.000706472 0
2.79191e-06 -0.00118328 0
1.05781e-05 -0.000711062 0
-1.30018e-06 -0.00118679 0
1.04698e-05 -0.000707462 0
1.02715e-06 -0.00118566 0
7.46743e-06 -0.000714054 0
4.80182e-07 -0.00118638 0
1.05781e-05 -0.000711062 0
-1.30018e-06 -0.00118679 0
7.6436e-06 -0.000715326 0
2.07553e-06 -0.00118601 0
7.46743e-06 -0.000714054 0
4.80182e-07 -0.00118638 0
5.5475e-06 -0.000717175 0
2.46622e-06 -0.00118639 0
7.6436e-06 -0.000715326 0
2.07553e-06 -0.00118601 0
1.25257e-07 -0.000717648 0
3.02623e-06 -0.00118675 0
5.5475e-06 -0.000717175 0
2.46622e-06 -0.00118639 0
-2.95663e-06 -0.000716231 0
2.6174e-06 -0.00118469 0
1.25257e-07 -0.000717648 0
3.02623e-06 -0.00118675 0
-3.33774e-06 -0.000714703 0
-3.55575e-07 -0.001184 0
-2.95663e-06 -0.000716231 0
2.6174e-06 -0.00118469 0
-1.67811e-06 -0.000715066 0
-2.01066e-06 -0.00118142 0
-3.33774e-06 -0.000714703 0
-3.55575e-07 -0.001184 0
-2.53181e-06 -0.00071524 0
-1.03567e-06 -0.0011827 0
-1.67811e-06 -0.000715066 0
-2.01066e-06 -0.00118142 0
-2.25859e-06 -0.000714388 0
-9.89436e-07 -0.00118266 0
-2.53181e-06 -0.00071524 0
-1.03567e-06 -0.0011827 0
2.81791e-07 -0.000714447 0
-8.80652e-07 -0.00118138 0
-2.25859e-06 -0.000714388 0
-9.89436e-07 -0.00118266 0
-1.55908e-06 -0.000715089 0
-9.19394e-07 -0.00118148 0
2.81791e-07 -0.000714447 0
-8.80652e-07 -0.00118138 0
-5.50052e-06 -0.00071535 0
-6.77727e-07 -0.00118063 0
-1.55908e-06 -0.000715089 0
-9.19394e-07 -0.00118148 0
-7.10002e-06 -0.000713217 0
-2.30643e-07 -0.00118041 0
-5.50052e-06 -0.00071535 0
-6.77727e-07 -0.00118063 0
-6.83488e-06 -0.000711086 0
-1.59712e-06 -0.00118065 0
-7.10002e-06 -0.000713217 0
-2.30643e-07 -0.00118041 0
-6.44809e-06 -0.000709928 0
-1.89561e-06 -0.00118049 0
-6.83488e-06 -0.000711086 0
-1.59712e-06 -0.00118065 0
-5.78918e-06 -0.000708181 0
-9.99315e-07 -0.00118063 0
-6.44809e-06 -0.000709928 0
-1.89561e-06 -0.00118049 0
-4.6142e-06 -0.000706438 0
-7.18977e-07 -0.001181 0
-5.78918e-06 -0.000708181 0
-9.99315e-07 -0.00118063 0
-2.34325e-06 -0.000705597 0
-9.38822e-07 -0.0011802 0
-4.6142e-06 -0.000706438 0
-7.18977e-07 -0.001181 0
-6.81003e-07 -0.000705586 0
1.15184e-06 -0.00118061 0
-2.34325e-06 -0.000705597 0
-9.38822e-07 -0.0011802 0
4.29662e-06 -0.000704617 0
4.53128e-06 -0.00117973 0
-6.81003e-07 -0.000705586 0
1.15184e-06 -0.00118061 0
1.08042e-05 -0.000705537 0
3.71533e-06 -0.00118068 0
4.29662e-06 -0.000704617 0
4.53128e-06 -0.00117973 0
1.06586e-05 -0.000708331 0
2.66784e-06 -0.00117888 0
1.08042e-05 -0.000705537 0
3.71533e-06 -0.00118068 0
8.83572e-06 -0.00071056 0
1.72051e-06 -0.00117804 0
1.06586e-05 -0.000708331 0
2.66784e-06 -0.00117888 0
6.54193e-06 -0.000713599 0
-1.59154e-06 -0.00117597 0
8.83572e-06 -0.00071056 0
1.72051e-06 -0.00117804 0
6.54193e-06 -0.000713599 0
9.23055e-08 -0.000716957 0
-1.59154e-06 -0.00117597 0
-5.58482e-06 -0.00117321 0
-8.31061e-06 -0.00071726 0
-6.37403e-06 -0.00117682 0
9.23055e-08 -0.000716957 0
-5.58482e-06 -0.00117321 0
-1.58264e-05 -0.000714425 0
-2.98484e-06 -0.00118057 0
-8.31061e-06 -0.00071726 0
-6.37403e-06 -0.00117682 0
-1.7652e-05 -0.000709105 0
-1.85279e-06 -0.00118279 0
-1.58264e-05 -0.000714425 0
-2.98484e-06 -0.00118057 0
-1.5708e-05 -0.000704787 0
-2.64662e-06 -0.00118557 0
-1.7652e-05 -0.000709105 0
-1.85279e-06 -0.00118279 0
-7.09086e-06 -0.000700499 0
4.71544e-06 -0.00119032 0
-1.5708e-05 -0.000704787 0
-2.64662e-06 -0.00118557 0
-7.09086e-06 -0.000700499 0
2.72165e-06 -0.000695686 0
4.71544e-06 -0.00119032 0
6.82895e-06 -0.00119072 0
2.72165e-06 -0.000695686 0
2.16416e-05 -0.000697205 0
6.82895e-06 -0.00119072 0
1.37732e-05 -0.00118809 0
2.58573e-05 -0.000702271 0
8.03867e-06 -0.00118558 0
2.16416e-05 -0.000697205 0
1.37732e-05 -0.00118809 0
3.21993e-05 -0.000706624 0
1.53178e-05 -0.00118838 0
2.58573e-05 -0.000702271 0
8.03867e-06 -0.00118558 0
-8.32837e-07 -0.000705723 0
-1.15688e-05 -0.00119791 0
3.21993e-05 -0.000706624 0
1.53178e-05 -0.00118838 0
2.51769e-06 -0.000708755 0
-2.44754e-05 -0.00120672 0
-8.32837e-07 -0.000705723 0
-1.15688e-05 -0.00119791 0
-0.00010402 -0.000732119 0
-0.000109237 -0.00117061 0
2.51769e-06 -0.000708755 0
-2.44754e-05 -0.00120672 0
-0.000186888 -0.000738938 0
-0.000225533 -0.00113544 0
-0.00010402 -0.000732119 0
-0.000109237 -0.00117061 0
-0.000821997 -0.000764683 0
-0.000692657 -0.00102953 0
-0.000186888 -0.000738938 0
-0.000225533 -0.00113544 0
-0.00188658 -0.000661008 0
-0.00196514 -0.000889253 0
-0.000821997 -0.000764683 0
-0.000692657 -0.00102953 0
-0.00407816 -0.00112808 0
-0.00677632 -0.00218312 0
-0.00188658 -0.000661008 0
-0.00196514 -0.000889253 0
-0.00493787 -0.00194337 0
-0.00815414 -0.0095676 0
-0.00407816 -0.00112808 0
-0.00677632 -0.00218312 0
-0.00493787 -0.00194337 0
-0.0046444 -0.00237324 0
-0.00815414 -0.0095676 0
-0.0052553 -0.0139037 0
-0.000348085 -0.00258741 0
-0.000723269 -0.0159482 0
0.000409965 -0.000842648 0
-0.000952491 -0.0130376 0
1.26865e-05 -0.000413037 0
-2.9624e-06 -0.000680058 0
1.49207e-05 -0.000402694 0
-1.02382e-05 -0.000681022 0
1.26865e-05 -0.000413037 0
6.95923e-06 -0.000419814 0
-2.9624e-06 -0.000680058 0
2.08369e-06 -0.000677316 0
4.25051e-06 -0.000419353 0
3.01941e-06 -0.000678904 0
6.95923e-06 -0.000419814 0
2.08369e-06 -0.000677316 0
4.25051e-06 -0.000419353 0
6.40196e-06 -0.00042137 0
3.01941e-06 -0.000678904 0
8.73448e-07 -0.000676009 0
6.40196e-06 -0.00042137 0
7.72802e-06 -0.000422611 0
8.73448e-07 -0.000676009 0
2.09838e-06 -0.000676616 0
7.72802e-06 -0.000422611 0
7.7624e-06 -0.000423876 0
2.09838e-06 -0.000676616 0
3.5049e-06 -0.000676238 0
7.7624e-06 -0.000423876 0
8.28793e-06 -0.000423575 0
3.5049e-06 -0.000676238 0
2.2431e-06 -0.000678538 0
8.28793e-06 -0.000423575 0
8.3608e-06 -0.000425706 0
2.2431e-06 -0.000678538 0
-2.06316e-07 -0.000679913 0
8.3608e-06 -0.000425706 0
6.57333e-06 -0.000427978 0
-2.06316e-07 -0.000679913 0
-2.48923e-07 -0.00068146 0
6.57333e-06 -0.000427978 0
4.65478e-06 -0.000429679 0
-2.48923e-07 -0.00068146 0
-8.12276e-08 -0.00068272 0
4.65478e-06 -0.000429679 0
3.31176e-06 -0.000430717 0
-8.12276e-08 -0.00068272 0
7.03732e-09 -0.000683852 0
3.31176e-06 -0.000430717 0
2.23287e-06 -0.000431569 0
7.03732e-09 -0.000683852 0
1.92745e-07 -0.000684414 0
2.23287e-06 -0.000431569 0
1.61324e-06 -0.000431887 0
1.92745e-07 -0.000684414 0
6.18476e-07 -0.00068489 0
1.61324e-06 -0.000431887 0
1.29113e-06 -0.000432056 0
6.18476e-07 -0.00068489 0
8.47808e-07 -0.000685116 0
1.29113e-06 -0.000432056 0
1.64926e-06 -0.000432071 0
8.47808e-07 -0.000685116 0
1.11731e-06 -0.000685273 0
1.64926e-06 -0.000432071 0
2.91581e-06 -0.000432183 0
1.11731e-06 -0.000685273 0
4.69962e-07 -0.000685998 0
2.91581e-06 -0.000432183 0
3.10233e-06 -0.000433017 0
4.69962e-07 -0.000685998 0
-3.8813e-07 -0.000686567 0
3.10233e-06 -0.000433017 0
3.27434e-06 -0.000433959 0
-3.8813e-07 -0.000686567 0
2.43601e-07 -0.000687552 0
3.27434e-06 -0.000433959 0
3.3054e-06 -0.000434894 0
2.43601e-07 -0.000687552 0
7.50017e-07 -0.000688569 0
3.3054e-06 -0.000434894 0
2.42992e-06 -0.00043556 0
7.50017e-07 -0.000688569 0
9.36013e-07 -0.000689382 0
2.42992e-06 -0.00043556 0
1.90489e-06 -0.000435768 0
9.36013e-07 -0.000689382 0
8.09296e-07 -0.000690193 0
1.90489e-06 -0.000435768 0
1.60268e-06 -0.00043615 0
8.09296e-07 -0.000690193 0
8.96481e-07 -0.000690171 0
1.60268e-06 -0.00043615 0
1.32887e-06 -0.000436039 0
8.96481e-07 -0.000690171 0
1.06906e-06 -0.000689831 0
1.32887e-06 -0.000436039 0
1.14934e-06 -0.00043587 0
1.06906e-06 -0.000689831 0
7.06513e-07 -0.00068945 0
0.141981 -0.213435 0
0.00714394 -0.36459 0
0.157251 -0.231795 0
0.000846138 -0.358931 0
0.0125158 -0.0145394 0
0.00691948 -0.00838996 0
0.00735595 -0.0190684 0
0.00610304 -0.0117135 0
0.00691948 -0.00838996 0
0.0037272 -0.00437417 0
0.00610304 -0.0117135 0
0.00350918 -0.00550615 0
0.00157336 -0.00218417 0
0.00153113 -0.0022534 0
0.0037272 -0.00437417 0
0.00350918 -0.00550615 0
0.00157336 -0.00218417 0
0.000446315 -0.0010441 0
0.00153113 -0.0022534 0
0.000230033 -0.00116558 0
0.000446315 -0.0010441 0
4.8266e-06 -0.000621869 0
0.000230033 -0.00116558 0
-0.000167658 -0.000763913 0
-0.000182776 -0.000406818 0
-0.000393852 -0.000592776 0
4.8266e-06 -0.000621869 0
-0.000167658 -0.000763913 0
-0.000250395 -0.000351147 0
-0.000441859 -0.000509882 0
-0.000182776 -0.000406818 0
-0.000393852 -0.000592776 0
-0.000250395 -0.000351147 0
-0.000279399 -0.000306155 0
-0.000441859 -0.000509882 0
-0.000470907 -0.000482548 0
-0.000279399 -0.000306155 0
-0.000282362 -0.000297211 0
-0.000470907 -0.000482548 0
-0.000474027 -0.000467507 0
-0.00027766 -0.000289025 0
-0.000472157 -0.000456112 0
-0.000282362 -0.000297211 0
-0.000474027 -0.000467507 0
-0.00027766 -0.000289025 0
-0.000273265 -0.000293457 0
-0.000472157 -0.000456112 0
-0.000462199 -0.0004497 0
-0.000273265 -0.000293457 0
-0.000270192 -0.000287041 0
-0.000462199 -0.0004497 0
-0.00045488 -0.000446933 0
-0.000270192 -0.000287041 0
-0.000265157 -0.000287374 0
-0.00045488 -0.000446933 0
-0.000448139 -0.000441806 0
-0.000265157 -0.000287374 0
-0.000263646 -0.000281464 0
-0.000448139 -0.000441806 0
-0.00044146 -0.000437821 0
-0.000259548 -0.000277883 0
-0.00043434 -0.000429747 0
-0.000263646 -0.000281464 0
-0.00044146 -0.000437821 0
-0.000257388 -0.00027482 0
-0.000428397 -0.000423256 0
-0.000259548 -0.000277883 0
-0.00043434 -0.000429747 0
-0.000257388 -0.00027482 0
-0.000256442 -0.000269017 0
-0.000428397 -0.000423256 0
-0.000423301 -0.000414786 0
-0.000256442 -0.000269017 0
-0.000252757 -0.000266689 0
-0.000423301 -0.000414786 0
-0.000417509 -0.000408893 0
-0.000252757 -0.000266689 0
-0.000250487 -0.000262654 0
-0.000417509 -0.000408893 0
-0.000412928 -0.000403026 0
-0.000250487 -0.000262654 0
-0.000245287 -0.000261535 0
-0.000412928 -0.000403026 0
-0.000408484 -0.000399604 0
-0.000245287 -0.000261535 0
-0.000243265 -0.000259107 0
-0.000408484 -0.000399604 0
-0.000401837 -0.000394995 0
-0.000243265 -0.000259107 0
-0.000235723 -0.000261569 0
-0.000401837 -0.000394995 0
-0.000395354 -0.000389383 0
-0.000235723 -0.000261569 0
-0.000235208 -0.000262382 0
-0.000395354 -0.000389383 0
-0.000389803 -0.000389621 0
-0.000227014 -0.000257238 0
-0.000386296 -0.000398741 0
-0.000235208 -0.000262382 0
-0.000389803 -0.000389621 0
-0.000220556 -0.000254113 0
-0.000397433 -0.000399062 0
-0.000227014 -0.000257238 0
-0.000386296 -0.000398741 0
-0.000220556 -0.000254113 0
-0.000221518 -0.000254711 0
-0.000397433 -0.000399062 0
-0.000399717 -0.000390927 0
-0.000228452 -0.000259522 0
-0.000401323 -0.000375724 0
-0.000221518 -0.000254711 0
-0.000399717 -0.000390927 0
-0.000239336 -0.000274991 0
-0.000376081 -0.000360991 0
-0.000228452 -0.000259522 0
-0.000401323 -0.000375724 0
-0.000239336 -0.000274991 0
-0.000258496 -0.000257839 0
-0.000376081 -0.000360991 0
-0.000366748 -0.000364431 0
-0.000243465 -0.000250264 0
-0.000379462 -0.000382064 0
-0.000258496 -0.000257839 0
-0.000366748 -0.000364431 0
-0.000243465 -0.000250264 0
-0.000224966 -0.000265621 0
-0.000379462 -0.000382064 0
-0.000410242 -0.000395827 0
-0.000224966 -0.000265621 0
-0.000180172 -0.000332037 0
-0.000410242 -0.000395827 0
-0.000358153 -0.00045237 0
-0.000180172 -0.000332037 0
-0.00017274 -0.00036011 0
-0.000358153 -0.00045237 0
-0.000338626 -0.000419565 0
-0.00017274 -0.00036011 0
-0.000225047 -0.000303904 0
-0.000338626 -0.000419565 0
-7.82908e-05 -0.000567661 0
-0.000225047 -0.000303904 0
-0.000132682 -0.000194389 0
-7.82908e-05 -0.000567661 0
-0.000219042 -0.000264431 0
-0.000132682 -0.000194389 0
-1.76867e-05 -0.000407565 0
-0.000219042 -0.000264431 0
-0.000234156 -0.000709714 0
-1.76867e-05 -0.000407565 0
9.22492e-05 -0.000314321 0
-0.000234156 -0.000709714 0
4.91476e-05 -0.000570362 0
9.22492e-05 -0.000314321 0
8.04247e-05 -0.000415124 0
4.91476e-05 -0.000570362 0
-0.000174522 -0.000592892 0
8.04247e-05 -0.000415124 0
7.16897e-06 -0.000478865 0
-0.000174522 -0.000592892 0
4.14845e-06 -0.000589007 0
7.16897e-06 -0.000478865 0
-0.000104958 -0.000423497 0
4.14845e-06 -0.000589007 0
-3.34294e-05 -0.000728567 0
1.06906e-06 -0.000689831 0
7.06513e-07 -0.00068945 0
2.46971e-07 -0.00013167 0
-1.53689e-07 -0.000132358 0
2.46971e-07 -0.00013167 0
-1.53689e-07 -0.000132358 0
-8.38645e-08 -0.000273495 0
-2.73019e-07 -0.00027309 0
-8.38645e-08 -0.000273495 0
-2.73019e-07 -0.00027309 0
-5.88428e-07 1.2357e-05 0
1.11353e-07 1.26437e-05 0
-5.88428e-07 1.2357e-05 0
1.11353e-07 1.26437e-05 0
1.84056e-07 -0.000102876 0
-1.77816e-07 -0.000103007 0
1.84056e-07 -0.000102876 0
-1.77816e-07 -0.000103007 0
-4.41613e-07 3.0452e-05 0
6.55715e-09 3.08205e-05 0
-4.41613e-07 3.0452e-05 0
6.55715e-09 3.08205e-05 0
3.21734e-07 -4.18665e-05 0
1.81914e-07 -4.20563e-05 0
-3.38746e-07 2.07755e-05 0
3.21734e-07 -4.18665e-05 0
-2.67815e-07 2.07379e-05 0
1.81914e-07 -4.20563e-05 0
-3.38746e-07 2.07755e-05 0
-2.67815e-07 2.07379e-05 0
-7.19634e-08 -1.85144e-05 0
6.97004e-08 -1.85449e-05 0
-7.19634e-08 -1.85144e-05 0
6.97004e-08 -1.85449e-05 0
-3.62816e-07 1.1075e-05 0
-4.10772e-07 1.09274e-05 0
-3.62816e-07 1.1075e-05 0
-4.10772e-07 1.09274e-05 0
-3.77316e-07 -8.66437e-06 0
-1.04191e-07 -8.56693e-06 0
-3.77316e-07 -8.66437e-06 0
-1.04191e-07 -8.56693e-06 0
-4.91627e-07 5.13828e-06 0
-2.42694e-07 5.02067e-06 0
-4.91627e-07 5.13828e-06 0
-2.42694e-07 5.02067e-06 0
-5.36887e-07 -4.07125e-06 0
-3.36e-07 -4.19369e-06 0
-5.36887e-07 -4.07125e-06 0
-3.36e-07 -4.19369e-06 0
-6.17185e-07 2.01185e-06 0
-6.40155e-07 1.867e-06 0
-6.17185e-07 2.01185e-06 0
-6.40155e-07 1.867e-06 0
-7.08433e-07 -1.7606e-06 0
-9.04097e-07 -2.12663e-06 0
-7.08433e-07 -1.7606e-06 0
-9.04097e-07 -2.12663e-06 0
-7.81285e-07 3.0183e-07 0
-1.81525e-06 -1.33371e-07 0
-7.81285e-07 3.0183e-07 0
-1.81525e-06 -1.33371e-07 0
-9.48208e-07 -5.08057e-07 0
-2.37802e-06 -1.03107e-06 0
-9.48208e-07 -5.08057e-07 0
-2.37802e-06 -1.03107e-06 0
-9.14484e-07 -9.28643e-07 0
-3.6713e-06 -1.55856e-06 0
-9.14484e-07 -9.28643e-07 0
-3.6713e-06 -1.55856e-06 0
-7.68802e-07 1.07968e-06 0
-4.29563e-06 1.13852e-06 0
-7.68802e-07 1.07968e-06 0
-4.29563e-06 1.13852e-06 0
-4.54751e-07 -2.39126e-06 0
-3.6693e-06 -1.73507e-06 0
-4.54751e-07 -2.39126e-06 0
-3.6693e-06 -1.73507e-06 0
-1.22167e-07 3.8261e-06 0
-2.28261e-06 4.70779e-06 0
-1.22167e-07 3.8261e-06 0
-2.28261e-06 4.70779e-06 0
2.0675e-07 -6.09576e-06 0
-9.07884e-07 -5.47298e-06 0
2.0675e-07 -6.09576e-06 0
-9.07884e-07 -5.47298e-06 0
6.01362e-07 8.91447e-06 0
-2.57997e-07 9.33867e-06 0
6.01362e-07 8.91447e-06 0
-2.57997e-07 9.33867e-06 0
8.47744e-07 -1.59398e-05 0
6.21076e-07 -1.51654e-05 0
8.47744e-07 -1.59398e-05 0
6.21076e-07 -1.51654e-05 0
1.16947e-06 2.07514e-05 0
1.1771e-06 1.96699e-05 0
1.16947e-06 2.07514e-05 0
1.1771e-06 1.96699e-05 0
-5.35334e-07 -3.55883e-05 0
-1.11731e-06 -3.56325e-05 0
-5.35334e-07 -3.55883e-05 0
-1.11731e-06 -3.56325e-05 0
8.83415e-07 4.60707e-05 0
9.47496e-07 4.64107e-05 0
8.83415e-07 4.60707e-05 0
9.47496e-07 4.64107e-05 0
3.93403e-07 -0.000103306 0
-7.88591e-07 -0.000101883 0
3.93403e-07 -0.000103306 0
-7.88591e-07 -0.000101883 0
3.70309e-06 7.33264e-05 0
3.68398e-06 7.3628e-05 0
3.70309e-06 7.33264e-05 0
3.68398e-06 7.3628e-05 0
-1.21309e-06 -0.000329128 0
-7.39442e-07 -0.000330065 0
-1.21309e-06 -0.000329128 0
-7.39442e-07 -0.000330065 0
-3.62379e-08 -4.44158e-05 0
2.31658e-07 -4.41021e-05 0
-3.62379e-08 -4.44158e-05 0
2.31658e-07 -4.41021e-05 0
-3.22664e-06 -0.00118835 0
-1.60448e-06 -0.00118816 0
0.00451553 -0.358052 0
0.00466123 -0.356245 0
-0.000312296 -0.355094 0
0.000423921 -0.36104 0
0.000846138 -0.358931 0
0.00238622 -0.358432 0
0.00466123 -0.356245 0
0.000423921 -0.36104 0
0.00153113 -0.0022534 0
0.00235452 -0.00152851 0
0.00350918 -0.00550615 0
0.00633305 -0.00332637 0
0.00153113 -0.0022534 0
0.000230033 -0.00116558 0
0.00235452 -0.00152851 0
0.000658784 -0.00038364 0
0.000230033 -0.00116558 0
-0.000167658 -0.000763913 0
0.000658784 -0.00038364 0
0.000323626 -0.000266293 0
-0.000393852 -0.000592776 0
7.41626e-05 -6.41209e-05 0
-0.000167658 -0.000763913 0
0.000323626 -0.000266293 0
-0.000441859 -0.000509882 0
1.44265e-05 -7.94814e-05 0
-0.000393852 -0.000592776 0
7.41626e-05 -6.41209e-05 0
-0.000441859 -0.000509882 0
-0.000470907 -0.000482548 0
1.44265e-05 -7.94814e-05 0
-4.49324e-05 -3.21289e-05 0
-0.000470907 -0.000482548 0
-0.000474027 -0.000467507 0
-4.49324e-05 -3.21289e-05 0
-4.96105e-05 -4.59582e-05 0
-0.000472157 -0.000456112 0