# vtk DataFile Version 3.0
#This file was generated by the deal.II library on 2016/12/20 at 10:56:40
ASCII
DATASET UNSTRUCTURED_GRID

POINTS 7228 double
-1 0.5 0
-0.978723 0.478723 0
-0.970149 0.5 0
-0.964976 0.485465 0
-0.970149 0.5 0
-0.964976 0.485465 0
-0.940299 0.5 0
-0.945882 0.477585 0
0.12 -0.5 0
0.15 -0.5 0
0.119014 -0.4708 0
0.15 -0.471429 0
0.11755 -0.441479 0
0.119014 -0.4708 0
0.15 -0.442857 0
0.15 -0.471429 0
0.117242 -0.412206 0
0.11755 -0.441479 0
0.15 -0.414286 0
0.15 -0.442857 0
0.118129 -0.383064 0
0.117242 -0.412206 0
0.15 -0.385714 0
0.15 -0.414286 0
0.12021 -0.354337 0
0.118129 -0.383064 0
0.15 -0.357143 0
0.15 -0.385714 0
0.121793 -0.32584 0
0.12021 -0.354337 0
0.15 -0.328571 0
0.15 -0.357143 0
0.122717 -0.296869 0
0.121793 -0.32584 0
0.15 -0.3 0
0.15 -0.328571 0
0.123759 -0.266752 0
0.122717 -0.296869 0
0.153091 -0.267708 0
0.15 -0.3 0
0.18456 -0.26795 0
0.153091 -0.267708 0
0.183333 -0.3 0
0.15 -0.3 0
0.216606 -0.268111 0
0.18456 -0.26795 0
0.216667 -0.3 0
0.183333 -0.3 0
0.24835 -0.26841 0
0.216606 -0.268111 0
0.25 -0.3 0
0.216667 -0.3 0
0.278782 -0.268564 0
0.24835 -0.26841 0
0.279437 -0.298917 0
0.25 -0.3 0
0.279638 -0.328111 0
0.279437 -0.298917 0
0.25 -0.328571 0
0.25 -0.3 0
0.27971 -0.356801 0
0.279638 -0.328111 0
0.25 -0.357143 0
0.25 -0.328571 0
0.279677 -0.385395 0
0.27971 -0.356801 0
0.25 -0.385714 0
0.25 -0.357143 0
0.279641 -0.413938 0
0.279677 -0.385395 0
0.25 -0.414286 0
0.25 -0.385714 0
0.279666 -0.442534 0
0.279641 -0.413938 0
0.25 -0.442857 0
0.25 -0.414286 0
0.279811 -0.471266 0
0.279666 -0.442534 0
0.25 -0.471429 0
0.25 -0.442857 0
0.28 -0.5 0
0.279811 -0.471266 0
0.25 -0.5 0
0.25 -0.471429 0
0.970149 0.5 0
0.970096 0.46978 0
1 0.5 0
1 0.469697 0
0.940299 0.5 0
0.940231 0.46984 0
0.970149 0.5 0
0.970096 0.46978 0
0.910448 0.5 0
0.910371 0.469856 0
0.940299 0.5 0
0.940231 0.46984 0
0.880597 0.5 0
0.880527 0.469909 0
0.910448 0.5 0
0.910371 0.469856 0
0.850746 0.5 0
0.850684 0.469926 0
0.880597 0.5 0
0.880527 0.469909 0
0.820896 0.5 0
0.820842 0.469978 0
0.850746 0.5 0
0.850684 0.469926 0
0.791045 0.5 0
0.791001 0.470016 0
0.820896 0.5 0
0.820842 0.469978 0
0.761194 0.5 0
0.761159 0.470055 0
0.791045 0.5 0
0.791001 0.470016 0
0.731343 0.5 0
0.731316 0.470091 0
0.761194 0.5 0
0.761159 0.470055 0
0.701493 0.5 0
0.701472 0.470118 0
0.731343 0.5 0
0.731316 0.470091 0
0.671642 0.5 0
0.671627 0.470134 0
0.701493 0.5 0
0.701472 0.470118 0
0.641791 0.5 0
0.64178 0.470142 0
0.671642 0.5 0
0.671627 0.470134 0
0.641791 0.5 0
0.61194 0.5 0
0.64178 0.470142 0
0.611934 0.470065 0
0.58209 0.5 0
0.582089 0.470002 0
0.61194 0.5 0
0.611934 0.470065 0
0.552239 0.5 0
0.552248 0.469853 0
0.58209 0.5 0
0.582089 0.470002 0
0.522388 0.5 0
0.522413 0.469718 0
0.552239 0.5 0
0.552248 0.469853 0
0.492537 0.5 0
0.492577 0.469656 0
0.522388 0.5 0
0.522413 0.469718 0
0.462687 0.5 0
0.462743 0.469571 0
0.492537 0.5 0
0.492577 0.469656 0
0.432836 0.5 0
0.432895 0.46963 0
0.462687 0.5 0
0.462743 0.469571 0
0.402985 0.5 0
0.403046 0.469669 0
0.432836 0.5 0
0.432895 0.46963 0
0.373134 0.5 0
0.373191 0.469745 0
0.402985 0.5 0
0.403046 0.469669 0
0.343284 0.5 0
0.343335 0.469723 0
0.373134 0.5 0
0.373191 0.469745 0
0.313433 0.5 0
0.313478 0.469741 0
0.343284 0.5 0
0.343335 0.469723 0
0.283582 0.5 0
0.283622 0.469783 0
0.313433 0.5 0
0.313478 0.469741 0
0.253731 0.5 0
0.253768 0.469742 0
0.283582 0.5 0
0.283622 0.469783 0
0.223881 0.5 0
0.223918 0.469737 0
0.253731 0.5 0
0.253768 0.469742 0
0.19403 0.5 0
0.194064 0.46981 0
0.223881 0.5 0
0.223918 0.469737 0
0.164179 0.5 0
0.16421 0.469881 0
0.19403 0.5 0
0.194064 0.46981 0
0.134328 0.5 0
0.134355 0.46994 0
0.164179 0.5 0
0.16421 0.469881 0
0.104478 0.5 0
0.1045 0.469997 0
0.134328 0.5 0
0.134355 0.46994 0
0.074627 0.5 0
0.074645 0.470051 0
0.104478 0.5 0
0.1045 0.469997 0
0.044776 0.5 0
0.04479 0.470093 0
0.074627 0.5 0
0.074645 0.470051 0
0.014925 0.5 0
0.014935 0.47012 0
0.044776 0.5 0
0.04479 0.470093 0
-0.014925 0.5 0
-0.014918 0.470135 0
0.014925 0.5 0
0.014935 0.47012 0
-0.044776 0.5 0
-0.044771 0.470143 0
-0.014925 0.5 0
-0.014918 0.470135 0
-0.074627 0.5 0
-0.074623 0.470146 0
-0.044776 0.5 0
-0.044771 0.470143 0
-0.104478 0.5 0
-0.104496 0.469979 0
-0.074627 0.5 0
-0.074623 0.470146 0
-0.134328 0.5 0
-0.134359 0.469935 0
-0.104478 0.5 0
-0.104496 0.469979 0
-0.164179 0.5 0
-0.164225 0.469839 0
-0.134328 0.5 0
-0.134359 0.469935 0
-0.164179 0.5 0
-0.19403 0.5 0
-0.164225 0.469839 0
-0.194083 0.469797 0
-0.223881 0.5 0
-0.22394 0.469753 0
-0.19403 0.5 0
-0.194083 0.469797 0
-0.253731 0.5 0
-0.253798 0.469819 0
-0.223881 0.5 0
-0.22394 0.469753 0
-0.283582 0.5 0
-0.283647 0.470019 0
-0.253731 0.5 0
-0.253798 0.469819 0
-0.313433 0.5 0
-0.313491 0.470151 0
-0.283582 0.5 0
-0.283647 0.470019 0
-0.343284 0.5 0
-0.343348 0.470381 0
-0.313433 0.5 0
-0.313491 0.470151 0
-0.343284 0.5 0
-0.373134 0.5 0
-0.343348 0.470381 0
-0.373195 0.470395 0
-0.373134 0.5 0
-0.402985 0.5 0
-0.373195 0.470395 0
-0.403049 0.470404 0
-0.432836 0.5 0
-0.432937 0.470297 0
-0.402985 0.5 0
-0.403049 0.470404 0
-0.462687 0.5 0
-0.462848 0.469995 0
-0.432836 0.5 0
-0.432937 0.470297 0
-0.492537 0.5 0
-0.492807 0.469765 0
-0.462687 0.5 0
-0.462848 0.469995 0
-0.522388 0.5 0
-0.52276 0.46958 0
-0.492537 0.5 0
-0.492807 0.469765 0
-0.552239 0.5 0
-0.55273 0.469652 0
-0.522388 0.5 0
-0.52276 0.46958 0
-0.58209 0.5 0
-0.582662 0.469731 0
-0.552239 0.5 0
-0.55273 0.469652 0
-0.61194 0.5 0
-0.612594 0.469999 0
-0.58209 0.5 0
-0.582662 0.469731 0
-0.641791 0.5 0
-0.642647 0.470419 0
-0.61194 0.5 0
-0.612594 0.469999 0
-0.671642 0.5 0
-0.672638 0.470543 0
-0.641791 0.5 0
-0.642647 0.470419 0
-0.701493 0.5 0
-0.702968 0.4698 0
-0.671642 0.5 0
-0.672638 0.470543 0
-0.820896 0.5 0
-0.822797 0.47207 0
-0.791045 0.5 0
-0.795702 0.469563 0
0.31 -0.5 0
0.309694 -0.471123 0
0.28 -0.5 0
0.279811 -0.471266 0
0.31 -0.5 0
0.34 -0.5 0
0.309694 -0.471123 0
0.339686 -0.471033 0
0.37 -0.5 0
0.369721 -0.471055 0
0.34 -0.5 0
0.339686 -0.471033 0
0.37 -0.5 0
0.4 -0.5 0
0.369721 -0.471055 0
0.399756 -0.470957 0
0.4 -0.5 0
0.43 -0.5 0
0.399756 -0.470957 0
0.429805 -0.470822 0
0.43 -0.5 0
0.46 -0.5 0
0.429805 -0.470822 0
0.459835 -0.470712 0
0.46 -0.5 0
0.49 -0.5 0
0.459835 -0.470712 0
0.489873 -0.470554 0
0.49 -0.5 0
0.52 -0.5 0
0.489873 -0.470554 0
0.519906 -0.470379 0
0.52 -0.5 0
0.55 -0.5 0
0.519906 -0.470379 0
0.54993 -0.470248 0
0.55 -0.5 0
0.58 -0.5 0
0.54993 -0.470248 0
0.579948 -0.470155 0
0.58 -0.5 0
0.61 -0.5 0
0.579948 -0.470155 0
0.609962 -0.470091 0
0.61 -0.5 0
0.64 -0.5 0
0.609962 -0.470091 0
0.639972 -0.47005 0
0.64 -0.5 0
0.67 -0.5 0
0.639972 -0.47005 0
0.66998 -0.470026 0
0.67 -0.5 0
0.7 -0.5 0
0.66998 -0.470026 0
0.699986 -0.470013 0
0.7 -0.5 0
0.73 -0.5 0
0.699986 -0.470013 0
0.72999 -0.470006 0
0.73 -0.5 0
0.76 -0.5 0
0.72999 -0.470006 0
0.759994 -0.470003 0
0.76 -0.5 0
0.79 -0.5 0
0.759994 -0.470003 0
0.78998 -0.469916 0
0.79 -0.5 0
0.82 -0.5 0
0.78998 -0.469916 0
0.819956 -0.469877 0
0.82 -0.5 0
0.85 -0.5 0
0.819956 -0.469877 0
0.849929 -0.469833 0
0.85 -0.5 0
0.88 -0.5 0
0.849929 -0.469833 0
0.879924 -0.469805 0
0.88 -0.5 0
0.91 -0.5 0
0.879924 -0.469805 0
0.909913 -0.469792 0
0.91 -0.5 0
0.94 -0.5 0
0.909913 -0.469792 0
0.939922 -0.469775 0
0.94 -0.5 0
0.97 -0.5 0
0.939922 -0.469775 0
0.969956 -0.46974 0
0.97 -0.5 0
1 -0.5 0
0.969956 -0.46974 0
1 -0.469697 0
-0.702128 0.202128 0
-0.680976 0.2243 0
-0.723404 0.223404 0
-0.702394 0.245107 0
-0.702128 0.202128 0
-0.680851 0.180851 0
-0.680976 0.2243 0
-0.659597 0.203254 0
-0.680851 0.180851 0
-0.659574 0.159574 0
-0.659597 0.203254 0
-0.638233 0.18203 0
-0.638298 0.138298 0
-0.616915 0.16063 0
-0.659574 0.159574 0
-0.638233 0.18203 0
-0.617021 0.117021 0
-0.595665 0.139192 0
-0.638298 0.138298 0
-0.616915 0.16063 0
-0.617021 0.117021 0
-0.595745 0.095745 0
-0.595665 0.139192 0
-0.574431 0.117764 0
-0.595745 0.095745 0
-0.574468 0.074468 0
-0.574431 0.117764 0
-0.553204 0.096309 0
-0.553191 0.053191 0
-0.53184 0.075023 0
-0.574468 0.074468 0
-0.553204 0.096309 0
-0.553191 0.053191 0
-0.531915 0.031915 0
-0.53184 0.075023 0
-0.510492 0.053733 0
-0.531915 0.031915 0
-0.510638 0.010638 0
-0.510492 0.053733 0
-0.489127 0.032461 0
-0.510638 0.010638 0
-0.489362 -0.010638 0
-0.489127 0.032461 0
-0.467791 0.011178 0
-0.489362 -0.010638 0
-0.468085 -0.031915 0
-0.467791 0.011178 0
-0.446536 -0.010172 0
-0.446809 -0.053191 0
-0.42524 -0.031466 0
-0.468085 -0.031915 0
-0.446536 -0.010172 0
-0.425532 -0.074468 0
-0.404012 -0.052824 0
-0.446809 -0.053191 0
-0.42524 -0.031466 0
-0.425532 -0.074468 0
-0.404255 -0.095745 0
-0.404012 -0.052824 0
-0.382783 -0.074175 0
-0.404255 -0.095745 0
-0.382979 -0.117021 0
-0.382783 -0.074175 0
-0.361545 -0.095511 0
-0.382979 -0.117021 0
-0.361702 -0.138298 0
-0.361545 -0.095511 0
-0.340288 -0.116831 0
-0.361702 -0.138298 0
-0.340426 -0.159574 0
-0.340288 -0.116831 0
-0.319034 -0.138159 0
-0.340426 -0.159574 0
-0.319149 -0.180851 0
-0.319034 -0.138159 0
-0.297766 -0.159484 0
-0.319149 -0.180851 0
-0.297872 -0.202128 0
-0.297766 -0.159484 0
-0.276489 -0.180797 0
-0.297872 -0.202128 0
-0.276596 -0.223404 0
-0.276489 -0.180797 0
-0.255087 -0.202105 0
-0.255319 -0.244681 0
-0.233674 -0.223466 0
-0.276596 -0.223404 0
-0.255087 -0.202105 0
-0.234043 -0.265957 0
-0.212119 -0.244916 0
-0.255319 -0.244681 0
-0.233674 -0.223466 0
-0.234043 -0.265957 0
-0.212766 -0.287234 0
-0.212119 -0.244916 0
-0.190657 -0.266392 0
-0.191489 -0.308511 0
-0.169261 -0.287934 0
-0.212766 -0.287234 0
-0.190657 -0.266392 0
-0.170213 -0.329787 0
-0.147854 -0.309624 0
-0.191489 -0.308511 0
-0.169261 -0.287934 0
-0.170213 -0.329787 0
-0.148936 -0.351064 0
-0.147854 -0.309624 0
-0.126431 -0.331364 0
-0.12766 -0.37234 0
-0.105256 -0.353368 0
-0.148936 -0.351064 0
-0.126431 -0.331364 0
-0.12766 -0.37234 0
-0.106383 -0.393617 0
-0.105256 -0.353368 0
-0.083924 -0.375263 0
-0.106383 -0.393617 0
-0.085106 -0.414894 0
-0.083924 -0.375263 0
-0.062097 -0.396824 0
-0.085106 -0.414894 0
-0.06383 -0.43617 0
-0.062097 -0.396824 0
-0.040132 -0.418076 0
[...]
POINT_DATA 7228
VECTORS momentum double
0.00116751 -0.00116682 0
0.00591163 -0.00625196 0
0.0154089 -0.00124343 0
0.0190318 -0.00364421 0
0.0154089 -0.00124343 0
0.0190318 -0.00364421 0
0.036371 -0.000219919 0
0.037335 -0.00177528 0
-0.000127522 -0.000393725 0
6.47391e-05 -0.000391611 0
-4.13103e-05 -0.000896856 0
6.34963e-05 -0.000874281 0
-0.000203732 -0.000504258 0
-4.13103e-05 -0.000896856 0
7.0881e-05 -0.000539097 0
6.34963e-05 -0.000874281 0
-7.10365e-06 -0.000892337 0
-0.000203732 -0.000504258 0
5.32878e-06 -0.001007 0
7.0881e-05 -0.000539097 0
4.44671e-05 -0.000517863 0
-7.10365e-06 -0.000892337 0
-2.06758e-05 -0.000563975 0
5.32878e-06 -0.001007 0
5.1663e-05 -0.000742029 0
4.44671e-05 -0.000517863 0
-2.34851e-05 -0.000803006 0
-2.06758e-05 -0.000563975 0
3.5163e-05 -0.000402717 0
5.1663e-05 -0.000742029 0
-5.65175e-05 -0.000385803 0
-2.34851e-05 -0.000803006 0
0.00020118 -0.000722146 0
3.5163e-05 -0.000402717 0
7.31616e-05 -0.000518816 0
-5.65175e-05 -0.000385803 0
-8.58391e-05 -0.000300903 0
0.00020118 -0.000722146 0
-0.000256322 -0.000658579 0
7.31616e-05 -0.000518816 0
-0.000102991 -0.00110161 0
-0.000256322 -0.000658579 0
0.000241671 -0.000467346 0
7.31616e-05 -0.000518816 0
-2.99037e-05 -0.00107598 0
-0.000102991 -0.00110161 0
-0.000466941 -0.000487277 0
0.000241671 -0.000467346 0
2.79037e-05 -0.000572953 0
-2.99037e-05 -0.00107598 0
-0.000238636 -0.000426059 0
-0.000466941 -0.000487277 0
-6.70661e-05 -0.000220225 0
2.79037e-05 -0.000572953 0
-0.000295252 -0.000581266 0
-0.000238636 -0.000426059 0
6.90399e-06 -0.000286091 0
-0.000295252 -0.000581266 0
4.01197e-05 -0.000152128 0
-0.000238636 -0.000426059 0
-5.83356e-05 -0.000650488 0
6.90399e-06 -0.000286091 0
-2.6433e-05 -0.000705199 0
4.01197e-05 -0.000152128 0
9.70708e-06 -0.000349735 0
-5.83356e-05 -0.000650488 0
8.23612e-06 -0.000300592 0
-2.6433e-05 -0.000705199 0
-3.80139e-05 -0.000741361 0
9.70708e-06 -0.000349735 0
-8.11202e-06 -0.000764975 0
8.23612e-06 -0.000300592 0
4.3667e-06 -0.000365269 0
-3.80139e-05 -0.000741361 0
3.75823e-06 -0.000345932 0
-8.11202e-06 -0.000764975 0
-2.82115e-05 -0.000825299 0
4.3667e-06 -0.000365269 0
-4.40504e-06 -0.000833506 0
3.75823e-06 -0.000345932 0
8.18652e-06 -0.000372929 0
-2.82115e-05 -0.000825299 0
3.21417e-06 -0.000364335 0
-4.40504e-06 -0.000833506 0
-2.21169e-05 -0.00066619 0
-1.27895e-05 -0.00174102 0
-2.25579e-05 -0.000666495 0
-1.03076e-05 -0.00174343 0
-1.96112e-05 -0.000666562 0
-1.32964e-05 -0.00173848 0
-2.21169e-05 -0.00066619 0
-1.27895e-05 -0.00174102 0
-1.85996e-05 -0.000666051 0
-1.12707e-05 -0.00173579 0
-1.96112e-05 -0.000666562 0
-1.32964e-05 -0.00173848 0
-1.77105e-05 -0.000665004 0
-1.04448e-05 -0.00173303 0
-1.85996e-05 -0.000666051 0
-1.12707e-05 -0.00173579 0
-1.67673e-05 -0.000664245 0
-8.35413e-06 -0.00173067 0
-1.77105e-05 -0.000665004 0
-1.04448e-05 -0.00173303 0
-1.5128e-05 -0.000662646 0
-6.15413e-06 -0.00172843 0
-1.67673e-05 -0.000664245 0
-8.35413e-06 -0.00173067 0
-1.15695e-05 -0.00066179 0
-2.88718e-06 -0.0017264 0
-1.5128e-05 -0.000662646 0
-6.15413e-06 -0.00172843 0
-7.48512e-06 -0.000660069 0
1.75759e-06 -0.00172524 0
-1.15695e-05 -0.00066179 0
-2.88718e-06 -0.0017264 0
-6.42515e-07 -0.000658729 0
6.27694e-06 -0.00172436 0
-7.48512e-06 -0.000660069 0
1.75759e-06 -0.00172524 0
7.16939e-06 -0.000657885 0
1.29493e-05 -0.00172442 0
-6.42515e-07 -0.000658729 0
6.27694e-06 -0.00172436 0
1.80978e-05 -0.000656705 0
2.02993e-05 -0.00172448 0
7.16939e-06 -0.000657885 0
1.29493e-05 -0.00172442 0
3.11347e-05 -0.000655978 0
2.48079e-05 -0.00172625 0
1.80978e-05 -0.000656705 0
2.02993e-05 -0.00172448 0
3.11347e-05 -0.000655978 0
4.15617e-05 -0.00065671 0
2.48079e-05 -0.00172625 0
3.03212e-05 -0.0017287 0
5.18637e-05 -0.000657018 0
3.31351e-05 -0.00173342 0
4.15617e-05 -0.00065671 0
3.03212e-05 -0.0017287 0
5.75271e-05 -0.000659728 0
3.42209e-05 -0.00173725 0
5.18637e-05 -0.000657018 0
3.31351e-05 -0.00173342 0
5.53851e-05 -0.000662472 0
3.89729e-05 -0.00173893 0
5.75271e-05 -0.000659728 0
3.42209e-05 -0.00173725 0
5.43572e-05 -0.000663756 0
4.16185e-05 -0.00173845 0
5.53851e-05 -0.000662472 0
3.89729e-05 -0.00173893 0
4.61034e-05 -0.000666024 0
4.11855e-05 -0.0017371 0
5.43572e-05 -0.000663756 0
4.16185e-05 -0.00173845 0
3.19261e-05 -0.000666824 0
3.7715e-05 -0.00173472 0
4.61034e-05 -0.000666024 0
4.11855e-05 -0.0017371 0
1.99688e-05 -0.000666015 0
3.09537e-05 -0.00173056 0
3.19261e-05 -0.000666824 0
3.7715e-05 -0.00173472 0
1.17486e-05 -0.000664274 0
1.93361e-05 -0.00172802 0
1.99688e-05 -0.000666015 0
3.09537e-05 -0.00173056 0
6.19077e-06 -0.000664442 0
8.54952e-06 -0.00172422 0
1.17486e-05 -0.000664274 0
1.93361e-05 -0.00172802 0
-2.40442e-06 -0.000664317 0
1.06907e-06 -0.00172473 0
6.19077e-06 -0.000664442 0
8.54952e-06 -0.00172422 0
-6.74318e-06 -0.000664551 0
-7.96491e-06 -0.00172318 0
-2.40442e-06 -0.000664317 0
1.06907e-06 -0.00172473 0
-7.76744e-06 -0.000666163 0
-1.51009e-05 -0.00171944 0
-6.74318e-06 -0.000664551 0
-7.96491e-06 -0.00172318 0
-1.51595e-05 -0.000669903 0
-2.10603e-05 -0.00171431 0
-7.76744e-06 -0.000666163 0
-1.51009e-05 -0.00171944 0
-2.58241e-05 -0.000674262 0
-2.12012e-05 -0.00170764 0
-1.51595e-05 -0.000669903 0
-2.10603e-05 -0.00171431 0
-3.26261e-05 -0.000673436 0
-1.88948e-05 -0.00170551 0
-2.58241e-05 -0.000674262 0
-2.12012e-05 -0.00170764 0
-3.34483e-05 -0.000670918 0
-1.70893e-05 -0.00170546 0
-3.26261e-05 -0.000673436 0
-1.88948e-05 -0.00170551 0
-3.23039e-05 -0.000666967 0
-1.42932e-05 -0.00170822 0
-3.34483e-05 -0.000670918 0
-1.70893e-05 -0.00170546 0
-2.55362e-05 -0.000662123 0
-7.77908e-06 -0.00171198 0
-3.23039e-05 -0.000666967 0
-1.42932e-05 -0.00170822 0
-1.66336e-05 -0.000657272 0
-4.52886e-06 -0.00171627 0
-2.55362e-05 -0.000662123 0
-7.77908e-06 -0.00171198 0
-1.38819e-06 -0.000655676 0
3.24505e-06 -0.00171636 0
-1.66336e-05 -0.000657272 0
-4.52886e-06 -0.00171627 0
8.0808e-06 -0.00065536 0
1.05911e-05 -0.00171785 0
-1.38819e-06 -0.000655676 0
3.24505e-06 -0.00171636 0
2.76518e-05 -0.00065532 0
2.44453e-05 -0.00171635 0
8.0808e-06 -0.00065536 0
1.05911e-05 -0.00171785 0
3.68064e-05 -0.000656617 0
2.06607e-05 -0.00171614 0
2.76518e-05 -0.00065532 0
2.44453e-05 -0.00171635 0
4.56283e-05 -0.000659899 0
2.42906e-05 -0.0017126 0
3.68064e-05 -0.000656617 0
2.06607e-05 -0.00171614 0
2.52453e-05 -0.00066414 0
3.91574e-06 -0.00170841 0
4.56283e-05 -0.000659899 0
2.42906e-05 -0.0017126 0
2.46683e-05 -0.000669357 0
1.37191e-06 -0.0017006 0
2.52453e-05 -0.00066414 0
3.91574e-06 -0.00170841 0
2.46683e-05 -0.000669357 0
-2.51338e-05 -0.000674692 0
1.37191e-06 -0.0017006 0
-3.57583e-05 -0.00169524 0
-2.84465e-05 -0.000673898 0
-1.85594e-05 -0.00169516 0
-2.51338e-05 -0.000674692 0
-3.57583e-05 -0.00169524 0
-9.97961e-05 -0.000670396 0
-6.65425e-05 -0.00170265 0
-2.84465e-05 -0.000673898 0
-1.85594e-05 -0.00169516 0
-6.83053e-05 -0.000663414 0
-2.79229e-05 -0.00169306 0
-9.97961e-05 -0.000670396 0
-6.65425e-05 -0.00170265 0
-0.000180951 -0.000656271 0
-0.000137046 -0.00170422 0
-6.83053e-05 -0.000663414 0
-2.79229e-05 -0.00169306 0
-0.000140517 -0.000647637 0
-0.000104392 -0.00168006 0
-0.000180951 -0.000656271 0
-0.000137046 -0.00170422 0
-0.000140517 -0.000647637 0
-0.000441531 -0.000636266 0
-0.000104392 -0.00168006 0
-0.000413369 -0.00168386 0
-0.000441531 -0.000636266 0
-0.000575823 -0.000631488 0
-0.000413369 -0.00168386 0
-0.000573432 -0.00157791 0
-0.00153471 -0.000625799 0
-0.0015195 -0.00149895 0
-0.000575823 -0.000631488 0
-0.000573432 -0.00157791 0
-0.00246213 -0.00062079 0
-0.0024187 -0.00114224 0
-0.00153471 -0.000625799 0
-0.0015195 -0.00149895 0
-0.0052455 -0.000586585 0
-0.00509729 -0.0007519 0
-0.00246213 -0.00062079 0
-0.0024187 -0.00114224 0
-0.00839849 -0.000561011 0
-0.00813977 0.000342026 0
-0.0052455 -0.000586585 0
-0.00509729 -0.0007519 0
-0.0154515 -0.000478548 0
-0.0150119 0.00178444 0
-0.00839849 -0.000561011 0
-0.00813977 0.000342026 0
-0.0240389 -0.000458491 0
-0.0231379 0.00506489 0
-0.0154515 -0.000478548 0
-0.0150119 0.00178444 0
-0.0407708 -0.000179767 0
-0.0394204 0.00925055 0
-0.0240389 -0.000458491 0
-0.0231379 0.00506489 0
-0.0621827 -2.03219e-05 0
-0.0602887 0.0189251 0
-0.0407708 -0.000179767 0
-0.0394204 0.00925055 0
-0.0969423 -0.000342131 0
-0.0992433 0.0191615 0
-0.0621827 -2.03219e-05 0
-0.0602887 0.0189251 0
-0.109386 -0.00043597 0
-0.125683 -0.0155497 0
-0.0969423 -0.000342131 0
-0.0992433 0.0191615 0
0.00725866 -0.0023116 0
0.0134098 -0.0370018 0
-0.00993454 -0.00180369 0
-0.00720272 -0.0473932 0
-3.64169e-06 -0.000382265 0
-3.87752e-05 -0.000825784 0
8.18652e-06 -0.000372929 0
-2.82115e-05 -0.000825299 0
-3.64169e-06 -0.000382265 0
-1.95142e-05 -0.000393216 0
-3.87752e-05 -0.000825784 0
-3.95665e-05 -0.000822083 0
-2.92489e-05 -0.000395668 0
-4.16914e-05 -0.000824682 0
-1.95142e-05 -0.000393216 0
-3.95665e-05 -0.000822083 0
-2.92489e-05 -0.000395668 0
-2.70314e-05 -0.00040144 0
-4.16914e-05 -0.000824682 0
-4.25743e-05 -0.000822999 0
-2.70314e-05 -0.00040144 0
-2.39729e-05 -0.000402914 0
-4.25743e-05 -0.000822999 0
-3.71954e-05 -0.000827126 0
-2.39729e-05 -0.000402914 0
-1.81863e-05 -0.000406141 0
-3.71954e-05 -0.000827126 0
-2.9949e-05 -0.000829604 0
-1.81863e-05 -0.000406141 0
-1.09719e-05 -0.000405607 0
-2.9949e-05 -0.000829604 0
-2.36091e-05 -0.000835581 0
-1.09719e-05 -0.000405607 0
-3.46043e-06 -0.000408577 0
-2.36091e-05 -0.000835581 0
-1.93542e-05 -0.000839247 0
-3.46043e-06 -0.000408577 0
1.20622e-07 -0.000410222 0
-1.93542e-05 -0.000839247 0
-1.21668e-05 -0.000843335 0
1.20622e-07 -0.000410222 0
2.73595e-06 -0.000412514 0
-1.21668e-05 -0.000843335 0
-6.64239e-06 -0.000846112 0
2.73595e-06 -0.000412514 0
4.46383e-06 -0.000413325 0
-6.64239e-06 -0.000846112 0
-1.73703e-06 -0.000848551 0
4.46383e-06 -0.000413325 0
5.46425e-06 -0.000414602 0
-1.73703e-06 -0.000848551 0
1.25352e-06 -0.000849942 0
5.46425e-06 -0.000414602 0
5.91072e-06 -0.000414763 0
1.25352e-06 -0.000849942 0
4.10862e-06 -0.000851129 0
5.91072e-06 -0.000414763 0
5.9341e-06 -0.000415127 0
4.10862e-06 -0.000851129 0
4.95277e-06 -0.000851931 0
5.9341e-06 -0.000415127 0
6.50624e-06 -0.000415118 0
4.95277e-06 -0.000851931 0
5.39612e-06 -0.000853024 0
6.50624e-06 -0.000415118 0
8.42945e-06 -0.000415319 0
5.39612e-06 -0.000853024 0
4.00281e-06 -0.000854642 0
8.42945e-06 -0.000415319 0
8.8421e-06 -0.000415947 0
4.00281e-06 -0.000854642 0
2.83592e-06 -0.000855979 0
8.8421e-06 -0.000415947 0
8.31146e-06 -0.000416813 0
2.83592e-06 -0.000855979 0
2.94008e-06 -0.000857774 0
8.31146e-06 -0.000416813 0
7.72794e-06 -0.000417701 0
2.94008e-06 -0.000857774 0
3.22437e-06 -0.000859528 0
7.72794e-06 -0.000417701 0
5.87925e-06 -0.000418408 0
3.22437e-06 -0.000859528 0
2.95788e-06 -0.000861018 0
5.87925e-06 -0.000418408 0
4.79248e-06 -0.000418662 0
2.95788e-06 -0.000861018 0
2.49244e-06 -0.000862526 0
4.79248e-06 -0.000418662 0
3.97381e-06 -0.000419084 0
2.49244e-06 -0.000862526 0
1.9114e-06 -0.000863269 0
3.97381e-06 -0.000419084 0
3.54907e-06 -0.000419074 0
1.9114e-06 -0.000863269 0
1.6522e-06 -0.000863698 0
3.54907e-06 -0.000419074 0
3.08865e-06 -0.000419014 0
1.6522e-06 -0.000863698 0
7.34489e-07 -0.000863919 0
0.0780757 -0.0763557 0
0.0906136 -0.049204 0
0.115397 -0.112353 0
0.134243 -0.0777869 0
0.0780757 -0.0763557 0
0.050948 -0.0502526 0
0.0906136 -0.049204 0
0.0580671 -0.0361277 0
0.050948 -0.0502526 0
0.0335971 -0.0336394 0
0.0580671 -0.0361277 0
0.0375026 -0.0255883 0
0.0220868 -0.0222748 0
0.0239109 -0.0181523 0
0.0335971 -0.0336394 0
0.0375026 -0.0255883 0
0.0141837 -0.0145879 0
0.0150575 -0.0122446 0
0.0220868 -0.0222748 0
0.0239109 -0.0181523 0
0.0141837 -0.0145879 0
0.00897284 -0.00940069 0
0.0150575 -0.0122446 0
0.00912929 -0.00829294 0
0.00897284 -0.00940069 0
0.00548365 -0.00597946 0
0.00912929 -0.00829294 0
0.0053711 -0.00540228 0
0.00328461 -0.0037862 0
0.0029488 -0.00357407 0
0.00548365 -0.00597946 0
0.0053711 -0.00540228 0
0.00328461 -0.0037862 0
0.00189323 -0.00242273 0
0.0029488 -0.00357407 0
0.00150664 -0.00236433 0
0.00189323 -0.00242273 0
0.00105298 -0.00157595 0
0.00150664 -0.00236433 0
0.00061234 -0.00164314 0
0.00105298 -0.00157595 0
0.000561717 -0.00108654 0
0.00061234 -0.00164314 0
0.000111762 -0.00119944 0
0.000561717 -0.00108654 0
0.000269436 -0.0007847 0
0.000111762 -0.00119944 0
-0.000189881 -0.000935994 0
0.000113728 -0.000622878 0
-0.000345707 -0.000779463 0
0.000269436 -0.0007847 0
-0.000189881 -0.000935994 0
1.5967e-05 -0.000522313 0
-0.000436407 -0.000678504 0
0.000113728 -0.000622878 0
-0.000345707 -0.000779463 0
1.5967e-05 -0.000522313 0
-3.46088e-05 -0.000468036 0
-0.000436407 -0.000678504 0
-0.000476771 -0.000621994 0
-3.46088e-05 -0.000468036 0
-6.48762e-05 -0.000434514 0
-0.000476771 -0.000621994 0
-0.000495713 -0.000582853 0
-6.48762e-05 -0.000434514 0
-8.00762e-05 -0.000414225 0
-0.000495713 -0.000582853 0
-0.000501811 -0.00056307 0
-8.00762e-05 -0.000414225 0
-8.14097e-05 -0.00040662 0
-0.000501811 -0.00056307 0
-0.000498956 -0.000551466 0
-8.14097e-05 -0.00040662 0
-8.34546e-05 -0.000399094 0
-0.000498956 -0.000551466 0
-0.00049497 -0.000545339 0
-8.34546e-05 -0.000399094 0
-6.63548e-05 -0.000408833 0
-0.00049497 -0.000545339 0
-0.000477385 -0.000546625 0
-6.63548e-05 -0.000408833 0
-6.46672e-05 -0.000408274 0
-0.000477385 -0.000546625 0
-0.000470404 -0.000551981 0
-3.66361e-05 -0.000422567 0
-0.000440006 -0.000576664 0
-6.46672e-05 -0.000408274 0
-0.000470404 -0.000551981 0
-2.69344e-05 -0.000422618 0
-0.000449881 -0.000583307 0
-3.66361e-05 -0.000422567 0
-0.000440006 -0.000576664 0
-2.69344e-05 -0.000422618 0
1.10716e-05 -0.000460988 0
-0.000449881 -0.000583307 0
-0.000413956 -0.000601336 0
1.10748e-05 -0.000473707 0
-0.000412602 -0.000593117 0
1.10716e-05 -0.000460988 0
-0.000413956 -0.000601336 0
4.91183e-05 -0.000539745 0
-0.000317878 -0.00062403 0
1.10748e-05 -0.000473707 0
-0.000412602 -0.000593117 0
4.91183e-05 -0.000539745 0
2.92548e-05 -0.000519029 0
-0.000317878 -0.00062403 0
-0.000304498 -0.000651259 0
0.000113373 -0.000587415 0
-0.000232594 -0.000725447 0
2.92548e-05 -0.000519029 0
-0.000304498 -0.000651259 0
0.000113373 -0.000587415 0
0.000125355 -0.000598193 0
-0.000232594 -0.000725447 0
-0.000275228 -0.000723771 0
0.000125355 -0.000598193 0
0.000227622 -0.000721336 0
-0.000275228 -0.000723771 0
-0.000136808 -0.000831245 0
0.000227622 -0.000721336 0
0.000173935 -0.000668729 0
-0.000136808 -0.000831245 0
-0.000156797 -0.000745091 0
0.000173935 -0.000668729 0
0.000110035 -0.000580042 0
-0.000156797 -0.000745091 0
0.000129229 -0.000992188 0
0.000110035 -0.000580042 0
9.72262e-05 -0.000406429 0
0.000129229 -0.000992188 0
-4.15483e-05 -0.000486761 0
9.72262e-05 -0.000406429 0
7.14164e-05 -0.000427309 0
-4.15483e-05 -0.000486761 0
-9.39612e-05 -0.000859407 0
7.14164e-05 -0.000427309 0
0.000217508 -0.000282919 0
-9.39612e-05 -0.000859407 0
0.00010651 -0.000723024 0
0.000217508 -0.000282919 0
0.000173809 -0.000365893 0
0.00010651 -0.000723024 0
-0.00023136 -0.000820569 0
0.000173809 -0.000365893 0
9.4428e-05 -0.000438641 0
-0.00023136 -0.000820569 0
5.73258e-05 -0.000765225 0
9.4428e-05 -0.000438641 0
-0.000127522 -0.000393725 0
5.73258e-05 -0.000765225 0
-4.13103e-05 -0.000896856 0
1.6522e-06 -0.000863698 0
7.34489e-07 -0.000863919 0
6.66954e-07 -0.000477886 0
-5.21149e-07 -0.000479904 0
6.66954e-07 -0.000477886 0
-5.21149e-07 -0.000479904 0
-1.15166e-06 -0.000816595 0
-2.50227e-06 -0.000817381 0
-1.15166e-06 -0.000816595 0
-2.50227e-06 -0.000817381 0
-3.40789e-06 -0.000517472 0
-3.74978e-06 -0.000518715 0
-3.40789e-06 -0.000517472 0
-3.74978e-06 -0.000518715 0
-4.37746e-06 -0.000750023 0
-6.36933e-06 -0.000751565 0
-4.37746e-06 -0.000750023 0
-6.36933e-06 -0.000751565 0
-7.21772e-06 -0.000487244 0
-8.06561e-06 -0.000488285 0
-7.21772e-06 -0.000487244 0
-8.06561e-06 -0.000488285 0
-8.07128e-06 -0.00061217 0
-9.8651e-06 -0.00061368 0
-1.10992e-05 -0.000369805 0
-8.07128e-06 -0.00061217 0
-1.19543e-05 -0.000371146 0
-9.8651e-06 -0.00061368 0
-1.10992e-05 -0.000369805 0
-1.19543e-05 -0.000371146 0
-1.27538e-05 -0.000424379 0
-1.3416e-05 -0.000426003 0
-1.27538e-05 -0.000424379 0
-1.3416e-05 -0.000426003 0
-1.61004e-05 -0.000227047 0
-1.60587e-05 -0.000229386 0
-1.61004e-05 -0.000227047 0
-1.60587e-05 -0.000229386 0
-1.96102e-05 -0.000258257 0
-1.92369e-05 -0.000261474 0
-1.96102e-05 -0.000258257 0
-1.92369e-05 -0.000261474 0
-2.52381e-05 -0.000125969 0
-2.486e-05 -0.000131232 0
-2.52381e-05 -0.000125969 0
-2.486e-05 -0.000131232 0
-3.30316e-05 -0.000154517 0
-3.46676e-05 -0.000162447 0
-3.30316e-05 -0.000154517 0
-3.46676e-05 -0.000162447 0
-4.40968e-05 -8.3416e-05 0
-4.94893e-05 -9.44642e-05 0
-4.40968e-05 -8.3416e-05 0
-4.94893e-05 -9.44642e-05 0
-5.82639e-05 -0.000103104 0
-7.08925e-05 -0.000117736 0
-5.82639e-05 -0.000103104 0
-7.08925e-05 -0.000117736 0
-7.49574e-05 -7.46147e-05 0
-9.85684e-05 -9.10816e-05 0
-7.49574e-05 -7.46147e-05 0
-9.85684e-05 -9.10816e-05 0
-9.12643e-05 -6.72366e-05 0
-0.000128104 -8.31586e-05 0
-9.12643e-05 -6.72366e-05 0
-0.000128104 -8.31586e-05 0
-0.000103602 -6.66374e-05 0
-0.000154113 -7.73268e-05 0
-0.000103602 -6.66374e-05 0
-0.000154113 -7.73268e-05 0
-0.00010666 -2.38577e-05 0
-0.000164976 -2.51996e-05 0
-0.00010666 -2.38577e-05 0
-0.000164976 -2.51996e-05 0
-9.9217e-05 -6.62102e-05 0
-0.000155567 -5.64893e-05 0
-9.9217e-05 -6.62102e-05 0
-0.000155567 -5.64893e-05 0
-8.16751e-05 -8.08591e-06 0
-0.000126859 8.44155e-06 0
-8.16751e-05 -8.08591e-06 0
-0.000126859 8.44155e-06 0
-6.08072e-05 -0.000139272 0
-9.21299e-05 -0.000120277 0
-6.08072e-05 -0.000139272 0
-9.21299e-05 -0.000120277 0
-3.8807e-05 -9.00071e-05 0
-5.77221e-05 -7.38143e-05 0
-3.8807e-05 -9.00071e-05 0
-5.77221e-05 -7.38143e-05 0
-2.38606e-05 -0.000355138 0
-3.34274e-05 -0.000342391 0
-2.38606e-05 -0.000355138 0
-3.34274e-05 -0.000342391 0
-9.28937e-06 -0.000313443 0
-1.32849e-05 -0.000307136 0
-9.28937e-06 -0.000313443 0
-1.32849e-05 -0.000307136 0
-8.54193e-06 -0.000736276 0
-1.11094e-05 -0.000731439 0
-8.54193e-06 -0.000736276 0
-1.11094e-05 -0.000731439 0
-6.98e-07 -0.000644302 0
-6.55257e-07 -0.000641371 0
-6.98e-07 -0.000644302 0
-6.55257e-07 -0.000641371 0
-3.82e-06 -0.00120216 0
-4.64731e-06 -0.00119997 0
-3.82e-06 -0.00120216 0
-4.64731e-06 -0.00119997 0
3.03441e-06 -0.000897894 0
4.64778e-06 -0.000898172 0
3.03441e-06 -0.000897894 0
4.64778e-06 -0.000898172 0
-6.83619e-06 -0.00153922 0
-5.58522e-06 -0.0015423 0
-6.83619e-06 -0.00153922 0
-5.58522e-06 -0.0015423 0
-7.74452e-06 -0.000875648 0
-6.64404e-06 -0.00087774 0
-7.74452e-06 -0.000875648 0
-6.64404e-06 -0.00087774 0
-1.27895e-05 -0.00174102 0
-1.03076e-05 -0.00174343 0
0.0906136 -0.049204 0
0.0890703 -0.0113018 0
0.134243 -0.0777869 0
0.139993 -0.00709057 0
0.0906136 -0.049204 0
0.0580671 -0.0361277 0
0.0890703 -0.0113018 0
0.0567195 -0.0144689 0
0.0580671 -0.0361277 0
0.0375026 -0.0255883 0
0.0567195 -0.0144689 0
0.0372704 -0.0138177 0
0.0239109 -0.0181523 0
0.0238223 -0.0109306 0
0.0375026 -0.0255883 0
0.0372704 -0.0138177 0
0.0150575 -0.0122446 0
0.0152413 -0.00829944 0
0.0239109 -0.0181523 0
0.0238223 -0.0109306 0
0.0150575 -0.0122446 0
0.00912929 -0.00829294 0
0.0152413 -0.00829944 0
0.00925807 -0.00569997 0
0.00912929 -0.00829294 0
0.0053711 -0.00540228 0
0.00925807 -0.00569997 0
0.00558599 -0.00392457 0
0.0029488 -0.00357407 0
0.00313291 -0.00252423 0
0.0053711 -0.00540228 0
0.00558599 -0.00392457 0
0.0029488 -0.00357407 0
0.00150664 -0.00236433 0
0.00313291 -0.00252423 0
0.00169912 -0.00169608 0
0.00150664 -0.00236433 0
0.00061234 -0.00164314 0
0.00169912 -0.00169608 0
0.000795555 -0.0010823 0
0.00061234 -0.00164314 0
0.000111762 -0.00119944 0
0.000795555 -0.0010823 0
0.000310469 -0.000762227 0
0.000111762 -0.00119944 0
-0.000189881 -0.000935994 0
0.000310469 -0.000762227 0
1.14177e-05 -0.000524317 0
-0.000345707 -0.000779463 0
-0.000136353 -0.00041478 0
-0.000189881 -0.000935994 0
1.14177e-05 -0.000524317 0
-0.000436407 -0.000678504 0
-0.000233546 -0.000333866 0
-0.000345707 -0.000779463 0
-0.000136353 -0.00041478 0
-0.000436407 -0.000678504 0
-0.000476771 -0.000621994 0
-0.000233546 -0.000333866 0