# vtk DataFile Version 3.0
#This file was generated by the deal.II library on 2016/12/20 at 10:56:42
ASCII
DATASET UNSTRUCTURED_GRID

POINTS 7228 double
-1 0.5 0
-0.978723 0.478723 0
-0.970149 0.5 0
-0.964976 0.485465 0
-0.970149 0.5 0
-0.964976 0.485465 0
-0.940299 0.5 0
-0.945882 0.477585 0
0.12 -0.5 0
0.15 -0.5 0
0.119014 -0.4708 0
0.15 -0.471429 0
0.11755 -0.441479 0
0.119014 -0.4708 0
0.15 -0.442857 0
0.15 -0.471429 0
0.117242 -0.412206 0
0.11755 -0.441479 0
0.15 -0.414286 0
0.15 -0.442857 0
0.118129 -0.383064 0
0.117242 -0.412206 0
0.15 -0.385714 0
0.15 -0.414286 0
0.12021 -0.354337 0
0.118129 -0.383064 0
0.15 -0.357143 0
0.15 -0.385714 0
0.121793 -0.32584 0
0.12021 -0.354337 0
0.15 -0.328571 0
0.15 -0.357143 0
0.122717 -0.296869 0
0.121793 -0.32584 0
0.15 -0.3 0
0.15 -0.328571 0
0.123759 -0.266752 0
0.122717 -0.296869 0
0.153091 -0.267708 0
0.15 -0.3 0
0.18456 -0.26795 0
0.153091 -0.267708 0
0.183333 -0.3 0
0.15 -0.3 0
0.216606 -0.268111 0
0.18456 -0.26795 0
0.216667 -0.3 0
0.183333 -0.3 0
0.24835 -0.26841 0
0.216606 -0.268111 0
0.25 -0.3 0
0.216667 -0.3 0
0.278782 -0.268564 0
0.24835 -0.26841 0
0.279437 -0.298917 0
0.25 -0.3 0
0.279638 -0.328111 0
0.279437 -0.298917 0
0.25 -0.328571 0
0.25 -0.3 0
0.27971 -0.356801 0
0.279638 -0.328111 0
0.25 -0.357143 0
0.25 -0.328571 0
0.279677 -0.385395 0
0.27971 -0.356801 0
0.25 -0.385714 0
0.25 -0.357143 0
0.279641 -0.413938 0
0.279677 -0.385395 0
0.25 -0.414286 0
0.25 -0.385714 0
0.279666 -0.442534 0
0.279641 -0.413938 0
0.25 -0.442857 0
0.25 -0.414286 0
0.279811 -0.471266 0
0.279666 -0.442534 0
0.25 -0.471429 0
0.25 -0.442857 0
0.28 -0.5 0
0.279811 -0.471266 0
0.25 -0.5 0
0.25 -0.471429 0
0.970149 0.5 0
0.970096 0.46978 0
1 0.5 0
1 0.469697 0
0.940299 0.5 0
0.940231 0.46984 0
0.970149 0.5 0
0.970096 0.46978 0
0.910448 0.5 0
0.910371 0.469856 0
0.940299 0.5 0
0.940231 0.46984 0
0.880597 0.5 0
0.880527 0.469909 0
0.910448 0.5 0
0.910371 0.469856 0
0.850746 0.5 0
0.850684 0.469926 0
0.880597 0.5 0
0.880527 0.469909 0
0.820896 0.5 0
0.820842 0.469978 0
0.850746 0.5 0
0.850684 0.469926 0
0.791045 0.5 0
0.791001 0.470016 0
0.820896 0.5 0
0.820842 0.469978 0
0.761194 0.5 0
0.761159 0.470055 0
0.791045 0.5 0
0.791001 0.470016 0
0.731343 0.5 0
0.731316 0.470091 0
0.761194 0.5 0
0.761159 0.470055 0
0.701493 0.5 0
0.701472 0.470118 0
0.731343 0.5 0
0.731316 0.470091 0
0.671642 0.5 0
0.671627 0.470134 0
0.701493 0.5 0
0.701472 0.470118 0
0.641791 0.5 0
0.64178 0.470142 0
0.671642 0.5 0
0.671627 0.470134 0
0.641791 0.5 0
0.61194 0.5 0
0.64178 0.470142 0
0.611934 0.470065 0
0.58209 0.5 0
0.582089 0.470002 0
0.61194 0.5 0
0.611934 0.470065 0
0.552239 0.5 0
0.552248 0.469853 0
0.58209 0.5 0
0.582089 0.470002 0
0.522388 0.5 0
0.522413 0.469718 0
0.552239 0.5 0
0.552248 0.469853 0
0.492537 0.5 0
0.492577 0.469656 0
0.522388 0.5 0
0.522413 0.469718 0
0.462687 0.5 0
0.462743 0.469571 0
0.492537 0.5 0
0.492577 0.469656 0
0.432836 0.5 0
0.432895 0.46963 0
0.462687 0.5 0
0.462743 0.469571 0
0.402985 0.5 0
0.403046 0.469669 0
0.432836 0.5 0
0.432895 0.46963 0
0.373134 0.5 0
0.373191 0.469745 0
0.402985 0.5 0
0.403046 0.469669 0
0.343284 0.5 0
0.343335 0.469723 0
0.373134 0.5 0
0.373191 0.469745 0
0.313433 0.5 0
0.313478 0.469741 0
0.343284 0.5 0
0.343335 0.469723 0
0.283582 0.5 0
0.283622 0.469783 0
0.313433 0.5 0
0.313478 0.469741 0
0.253731 0.5 0
0.253768 0.469742 0
0.283582 0.5 0
0.283622 0.469783 0
0.223881 0.5 0
0.223918 0.469737 0
0.253731 0.5 0
0.253768 0.469742 0
0.19403 0.5 0
0.194064 0.46981 0
0.223881 0.5 0
0.223918 0.469737 0
0.164179 0.5 0
0.16421 0.469881 0
0.19403 0.5 0
0.194064 0.46981 0
0.134328 0.5 0
0.134355 0.46994 0
0.164179 0.5 0
0.16421 0.469881 0
0.104478 0.5 0
0.1045 0.469997 0
0.134328 0.5 0
0.134355 0.46994 0
0.074627 0.5 0
0.074645 0.470051 0
0.104478 0.5 0
0.1045 0.469997 0
0.044776 0.5 0
0.04479 0.470093 0
0.074627 0.5 0
0.074645 0.470051 0
0.014925 0.5 0
0.014935 0.47012 0
0.044776 0.5 0
0.04479 0.470093 0
-0.014925 0.5 0
-0.014918 0.470135 0
0.014925 0.5 0
0.014935 0.47012 0
-0.044776 0.5 0
-0.044771 0.470143 0
-0.014925 0.5 0
-0.014918 0.470135 0
-0.074627 0.5 0
-0.074623 0.470146 0
-0.044776 0.5 0
-0.044771 0.470143 0
-0.104478 0.5 0
-0.104496 0.469979 0
-0.074627 0.5 0
-0.074623 0.470146 0
-0.134328 0.5 0
-0.134359 0.469935 0
-0.104478 0.5 0
-0.104496 0.469979 0
-0.164179 0.5 0
-0.164225 0.469839 0
-0.134328 0.5 0
-0.134359 0.469935 0
-0.164179 0.5 0
-0.19403 0.5 0
-0.164225 0.469839 0
-0.194083 0.469797 0
-0.223881 0.5 0
-0.22394 0.469753 0
-0.19403 0.5 0
-0.194083 0.469797 0
-0.253731 0.5 0
-0.253798 0.469819 0
-0.223881 0.5 0
-0.22394 0.469753 0
-0.283582 0.5 0
-0.283647 0.470019 0
-0.253731 0.5 0
-0.253798 0.469819 0
-0.313433 0.5 0
-0.313491 0.470151 0
-0.283582 0.5 0
-0.283647 0.470019 0
-0.343284 0.5 0
-0.343348 0.470381 0
-0.313433 0.5 0
-0.313491 0.470151 0
-0.343284 0.5 0
-0.373134 0.5 0
-0.343348 0.470381 0
-0.373195 0.470395 0
-0.373134 0.5 0
-0.402985 0.5 0
-0.373195 0.470395 0
-0.403049 0.470404 0
-0.432836 0.5 0
-0.432937 0.470297 0
-0.402985 0.5 0
-0.403049 0.470404 0
-0.462687 0.5 0
-0.462848 0.469995 0
-0.432836 0.5 0
-0.432937 0.470297 0
-0.492537 0.5 0
-0.492807 0.469765 0
-0.462687 0.5 0
-0.462848 0.469995 0
-0.522388 0.5 0
-0.52276 0.46958 0
-0.492537 0.5 0
-0.492807 0.469765 0
-0.552239 0.5 0
-0.55273 0.469652 0
-0.522388 0.5 0
-0.52276 0.46958 0
-0.58209 0.5 0
-0.582662 0.469731 0
-0.552239 0.5 0
-0.55273 0.469652 0
-0.61194 0.5 0
-0.612594 0.469999 0
-0.58209 0.5 0
-0.582662 0.469731 0
-0.641791 0.5 0
-0.642647 0.470419 0
-0.61194 0.5 0
-0.612594 0.469999 0
-0.671642 0.5 0
-0.672638 0.470543 0
-0.641791 0.5 0
-0.642647 0.470419 0
-0.701493 0.5 0
-0.702968 0.4698 0
-0.671642 0.5 0
-0.672638 0.470543 0
-0.820896 0.5 0
-0.822797 0.47207 0
-0.791045 0.5 0
-0.795702 0.469563 0
0.31 -0.5 0
0.309694 -0.471123 0
0.28 -0.5 0
0.279811 -0.471266 0
0.31 -0.5 0
0.34 -0.5 0
0.309694 -0.471123 0
0.339686 -0.471033 0
0.37 -0.5 0
0.369721 -0.471055 0
0.34 -0.5 0
0.339686 -0.471033 0
0.37 -0.5 0
0.4 -0.5 0
0.369721 -0.471055 0
0.399756 -0.470957 0
0.4 -0.5 0
0.43 -0.5 0
0.399756 -0.470957 0
0.429805 -0.470822 0
0.43 -0.5 0
0.46 -0.5 0
0.429805 -0.470822 0
0.459835 -0.470712 0
0.46 -0.5 0
0.49 -0.5 0
0.459835 -0.470712 0
0.489873 -0.470554 0
0.49 -0.5 0
0.52 -0.5 0
0.489873 -0.470554 0
0.519906 -0.470379 0
0.52 -0.5 0
0.55 -0.5 0
0.519906 -0.470379 0
0.54993 -0.470248 0
0.55 -0.5 0
0.58 -0.5 0
0.54993 -0.470248 0
0.579948 -0.470155 0
0.58 -0.5 0
0.61 -0.5 0
0.579948 -0.470155 0
0.609962 -0.470091 0
0.61 -0.5 0
0.64 -0.5 0
0.609962 -0.470091 0
0.639972 -0.47005 0
0.64 -0.5 0
0.67 -0.5 0
0.639972 -0.47005 0
0.66998 -0.470026 0
0.67 -0.5 0
0.7 -0.5 0
0.66998 -0.470026 0
0.699986 -0.470013 0
0.7 -0.5 0
0.73 -0.5 0
0.699986 -0.470013 0
0.72999 -0.470006 0
0.73 -0.5 0
0.76 -0.5 0
0.72999 -0.470006 0
0.759994 -0.470003 0
0.76 -0.5 0
0.79 -0.5 0
0.759994 -0.470003 0
0.78998 -0.469916 0
0.79 -0.5 0
0.82 -0.5 0
0.78998 -0.469916 0
0.819956 -0.469877 0
0.82 -0.5 0
0.85 -0.5 0
0.819956 -0.469877 0
0.849929 -0.469833 0
0.85 -0.5 0
0.88 -0.5 0
0.849929 -0.469833 0
0.879924 -0.469805 0
0.88 -0.5 0
0.91 -0.5 0
0.879924 -0.469805 0
0.909913 -0.469792 0
0.91 -0.5 0
0.94 -0.5 0
0.909913 -0.469792 0
0.939922 -0.469775 0
0.94 -0.5 0
0.97 -0.5 0
0.939922 -0.469775 0
0.969956 -0.46974 0
0.97 -0.5 0
1 -0.5 0
0.969956 -0.46974 0
1 -0.469697 0
-0.702128 0.202128 0
-0.680976 0.2243 0
-0.723404 0.223404 0
-0.702394 0.245107 0
-0.702128 0.202128 0
-0.680851 0.180851 0
-0.680976 0.2243 0
-0.659597 0.203254 0
-0.680851 0.180851 0
-0.659574 0.159574 0
-0.659597 0.203254 0
-0.638233 0.18203 0
-0.638298 0.138298 0
-0.616915 0.16063 0
-0.659574 0.159574 0
-0.638233 0.18203 0
-0.617021 0.117021 0
-0.595665 0.139192 0
-0.638298 0.138298 0
-0.616915 0.16063 0
-0.617021 0.117021 0
-0.595745 0.095745 0
-0.595665 0.139192 0
-0.574431 0.117764 0
-0.595745 0.095745 0
-0.574468 0.074468 0
-0.574431 0.117764 0
-0.553204 0.096309 0
-0.553191 0.053191 0
-0.53184 0.075023 0
-0.574468 0.074468 0
-0.553204 0.096309 0
-0.553191 0.053191 0
-0.531915 0.031915 0
-0.53184 0.075023 0
-0.510492 0.053733 0
-0.531915 0.031915 0
-0.510638 0.010638 0
-0.510492 0.053733 0
-0.489127 0.032461 0
-0.510638 0.010638 0
-0.489362 -0.010638 0
-0.489127 0.032461 0
-0.467791 0.011178 0
-0.489362 -0.010638 0
-0.468085 -0.031915 0
-0.467791 0.011178 0
-0.446536 -0.010172 0
-0.446809 -0.053191 0
-0.42524 -0.031466 0
-0.468085 -0.031915 0
-0.446536 -0.010172 0
-0.425532 -0.074468 0
-0.404012 -0.052824 0
-0.446809 -0.053191 0
-0.42524 -0.031466 0
-0.425532 -0.074468 0
-0.404255 -0.095745 0
-0.404012 -0.052824 0
-0.382783 -0.074175 0
-0.404255 -0.095745 0
-0.382979 -0.117021 0
-0.382783 -0.074175 0
-0.361545 -0.095511 0
-0.382979 -0.117021 0
-0.361702 -0.138298 0
-0.361545 -0.095511 0
-0.340288 -0.116831 0
-0.361702 -0.138298 0
-0.340426 -0.159574 0
-0.340288 -0.116831 0
-0.319034 -0.138159 0
-0.340426 -0.159574 0
-0.319149 -0.180851 0
-0.319034 -0.138159 0
-0.297766 -0.159484 0
-0.319149 -0.180851 0
-0.297872 -0.202128 0
-0.297766 -0.159484 0
-0.276489 -0.180797 0
-0.297872 -0.202128 0
-0.276596 -0.223404 0
-0.276489 -0.180797 0
-0.255087 -0.202105 0
-0.255319 -0.244681 0
-0.233674 -0.223466 0
-0.276596 -0.223404 0
-0.255087 -0.202105 0
-0.234043 -0.265957 0
-0.212119 -0.244916 0
-0.255319 -0.244681 0
-0.233674 -0.223466 0
-0.234043 -0.265957 0
-0.212766 -0.287234 0
-0.212119 -0.244916 0
-0.190657 -0.266392 0
-0.191489 -0.308511 0
-0.169261 -0.287934 0
-0.212766 -0.287234 0
-0.190657 -0.266392 0
-0.170213 -0.329787 0
-0.147854 -0.309624 0
-0.191489 -0.308511 0
-0.169261 -0.287934 0
-0.170213 -0.329787 0
-0.148936 -0.351064 0
-0.147854 -0.309624 0
-0.126431 -0.331364 0
-0.12766 -0.37234 0
-0.105256 -0.353368 0
-0.148936 -0.351064 0
-0.126431 -0.331364 0
-0.12766 -0.37234 0
-0.106383 -0.393617 0
-0.105256 -0.353368 0
-0.083924 -0.375263 0
-0.106383 -0.393617 0
-0.085106 -0.414894 0
-0.083924 -0.375263 0
-0.062097 -0.396824 0
-0.085106 -0.414894 0
-0.06383 -0.43617 0
-0.062097 -0.396824 0
-0.040132 -0.418076 0
[...]
POINT_DATA 7228
VECTORS momentum double
0.00122297 -0.00117921 0
0.00577318 -0.00605321 0
0.0162409 -0.00119904 0
0.0201814 -0.00288795 0
0.0162409 -0.00119904 0
0.0201814 -0.00288795 0
0.0413283 -8.3579e-05 0
0.040747 0.00054445 0
-0.000106898 -0.000398104 0
6.65112e-05 -0.000399434 0
-3.01623e-05 -0.000894755 0
6.2334e-05 -0.000865582 0
-0.000192161 -0.000513228 0
-3.01623e-05 -0.000894755 0
7.28205e-05 -0.0005552 0
6.2334e-05 -0.000865582 0
-1.17873e-05 -0.000905238 0
-0.000192161 -0.000513228 0
1.90968e-06 -0.00101159 0
7.28205e-05 -0.0005552 0
5.34944e-05 -0.000553117 0
-1.17873e-05 -0.000905238 0
-1.51442e-05 -0.000624775 0
1.90968e-06 -0.00101159 0
3.85864e-05 -0.000813114 0
5.34944e-05 -0.000553117 0
-3.42439e-05 -0.00084495 0
-1.51442e-05 -0.000624775 0
7.48439e-05 -0.000519907 0
3.85864e-05 -0.000813114 0
-2.29152e-05 -0.000527019 0
-3.42439e-05 -0.00084495 0
9.67897e-05 -0.000943273 0
7.48439e-05 -0.000519907 0
-1.27482e-06 -0.000571196 0
-2.29152e-05 -0.000527019 0
-0.000244229 -0.000477503 0
9.67897e-05 -0.000943273 0
-0.000455583 -0.000784204 0
-1.27482e-06 -0.000571196 0
-0.000187294 -0.00116384 0
-0.000455583 -0.000784204 0
0.00010055 -0.000445909 0
-1.27482e-06 -0.000571196 0
-5.7313e-05 -0.00116116 0
-0.000187294 -0.00116384 0
-0.000440766 -0.000484866 0
0.00010055 -0.000445909 0
9.13176e-05 -0.000669843 0
-5.7313e-05 -0.00116116 0
-0.000211801 -0.000455864 0
-0.000440766 -0.000484866 0
2.47024e-06 -0.00035108 0
9.13176e-05 -0.000669843 0
-0.000234722 -0.000723745 0
-0.000211801 -0.000455864 0
-1.05748e-05 -0.000357226 0
-0.000234722 -0.000723745 0
2.43219e-05 -0.000252325 0
-0.000211801 -0.000455864 0
-3.76928e-05 -0.00069828 0
-1.05748e-05 -0.000357226 0
-1.92266e-05 -0.000728714 0
2.43219e-05 -0.000252325 0
8.78314e-06 -0.000376967 0
-3.76928e-05 -0.00069828 0
4.20825e-06 -0.00034612 0
-1.92266e-05 -0.000728714 0
-2.99492e-05 -0.000758228 0
8.78314e-06 -0.000376967 0
-5.41558e-06 -0.000772121 0
4.20825e-06 -0.00034612 0
1.72611e-06 -0.00038041 0
-2.99492e-05 -0.000758228 0
1.9961e-06 -0.000368203 0
-5.41558e-06 -0.000772121 0
-2.63504e-05 -0.000829706 0
1.72611e-06 -0.00038041 0
-3.2958e-06 -0.000834534 0
1.9961e-06 -0.000368203 0
5.50157e-06 -0.000376583 0
-2.63504e-05 -0.000829706 0
2.32827e-06 -0.000370423 0
-3.2958e-06 -0.000834534 0
-2.48852e-05 -0.000664192 0
-1.49356e-05 -0.00173524 0
-2.55896e-05 -0.000664476 0
-1.26859e-05 -0.00173748 0
-2.18727e-05 -0.000664568 0
-1.50454e-05 -0.00173293 0
-2.48852e-05 -0.000664192 0
-1.49356e-05 -0.00173524 0
-2.02787e-05 -0.00066404 0
-1.25594e-05 -0.00173034 0
-2.18727e-05 -0.000664568 0
-1.50454e-05 -0.00173293 0
-1.8779e-05 -0.000662989 0
-1.1098e-05 -0.00172757 0
-2.02787e-05 -0.00066404 0
-1.25594e-05 -0.00173034 0
-1.71761e-05 -0.000662191 0
-8.25159e-06 -0.0017251 0
-1.8779e-05 -0.000662989 0
-1.1098e-05 -0.00172757 0
-1.46697e-05 -0.000660586 0
-5.08572e-06 -0.00172254 0
-1.71761e-05 -0.000662191 0
-8.25159e-06 -0.0017251 0
-9.9717e-06 -0.0006597 0
-6.01307e-07 -0.00172001 0
-1.46697e-05 -0.000660586 0
-5.08572e-06 -0.00172254 0
-4.38381e-06 -0.000657968 0
5.57259e-06 -0.00171817 0
-9.9717e-06 -0.0006597 0
-6.01307e-07 -0.00172001 0
4.29256e-06 -0.0006566 0
1.18974e-05 -0.00171653 0
-4.38381e-06 -0.000657968 0
5.57259e-06 -0.00171817 0
1.41714e-05 -0.000655732 0
2.05888e-05 -0.00171583 0
4.29256e-06 -0.0006566 0
1.18974e-05 -0.00171653 0
2.72557e-05 -0.000654467 0
2.98695e-05 -0.0017153 0
1.41714e-05 -0.000655732 0
2.05888e-05 -0.00171583 0
4.23441e-05 -0.000653699 0
3.61274e-05 -0.00171663 0
2.72557e-05 -0.000654467 0
2.98695e-05 -0.0017153 0
4.23441e-05 -0.000653699 0
5.453e-05 -0.000654349 0
3.61274e-05 -0.00171663 0
4.3106e-05 -0.00171892 0
6.62393e-05 -0.000654661 0
4.70801e-05 -0.00172365 0
5.453e-05 -0.000654349 0
4.3106e-05 -0.00171892 0
7.29219e-05 -0.000657358 0
4.9168e-05 -0.00172766 0
6.62393e-05 -0.000654661 0
4.70801e-05 -0.00172365 0
7.14931e-05 -0.000660069 0
5.46822e-05 -0.00172975 0
7.29219e-05 -0.000657358 0
4.9168e-05 -0.00172766 0
7.08295e-05 -0.000661312 0
5.78236e-05 -0.00172962 0
7.14931e-05 -0.000660069 0
5.46822e-05 -0.00172975 0
6.22201e-05 -0.000663483 0
5.73613e-05 -0.00172852 0
7.08295e-05 -0.000661312 0
5.78236e-05 -0.00172962 0
4.69534e-05 -0.000664201 0
5.3076e-05 -0.00172648 0
6.22201e-05 -0.000663483 0
5.73613e-05 -0.00172852 0
3.31789e-05 -0.000663354 0
4.46128e-05 -0.00172274 0
4.69534e-05 -0.000664201 0
5.3076e-05 -0.00172648 0
2.26604e-05 -0.000661619 0
3.06586e-05 -0.0017206 0
3.31789e-05 -0.000663354 0
4.46128e-05 -0.00172274 0
1.42509e-05 -0.00066179 0
1.6861e-05 -0.00171717 0
2.26604e-05 -0.000661619 0
3.06586e-05 -0.0017206 0
2.71838e-06 -0.00066169 0
6.21423e-06 -0.00171807 0
1.42509e-05 -0.00066179 0
1.6861e-05 -0.00171717 0
-4.66541e-06 -0.00066193 0
-6.19011e-06 -0.001717 0
2.71838e-06 -0.00066169 0
6.21423e-06 -0.00171807 0
-8.21622e-06 -0.000663459 0
-1.60947e-05 -0.00171364 0
-4.66541e-06 -0.00066193 0
-6.19011e-06 -0.001717 0
-1.82726e-05 -0.000667124 0
-2.47375e-05 -0.00170888 0
-8.21622e-06 -0.000663459 0
-1.60947e-05 -0.00171364 0
-3.04354e-05 -0.000671439 0
-2.63062e-05 -0.00170274 0
-1.82726e-05 -0.000667124 0
-2.47375e-05 -0.00170888 0
-3.8624e-05 -0.000670718 0
-2.51943e-05 -0.00170112 0
-3.04354e-05 -0.000671439 0
-2.63062e-05 -0.00170274 0
-3.89773e-05 -0.000668349 0
-2.25037e-05 -0.00170144 0
-3.8624e-05 -0.000670718 0
-2.51943e-05 -0.00170112 0
-3.79792e-05 -0.000664589 0
-1.95531e-05 -0.00170457 0
-3.89773e-05 -0.000668349 0
-2.25037e-05 -0.00170144 0
-2.90273e-05 -0.000659903 0
-1.07716e-05 -0.00170855 0
-3.79792e-05 -0.000664589 0
-1.95531e-05 -0.00170457 0
-2.03477e-05 -0.000655166 0
-7.75204e-06 -0.00171331 0
-2.90273e-05 -0.000659903 0
-1.07716e-05 -0.00170855 0
-2.18165e-06 -0.000653587 0
2.7372e-06 -0.00171374 0
-2.03477e-05 -0.000655166 0
-7.75204e-06 -0.00171331 0
5.52735e-06 -0.000653234 0
8.1021e-06 -0.00171619 0
-2.18165e-06 -0.000653587 0
2.7372e-06 -0.00171374 0
2.89281e-05 -0.000653048 0
2.51529e-05 -0.00171513 0
5.52735e-06 -0.000653234 0
8.1021e-06 -0.00171619 0
3.38639e-05 -0.000654241 0
1.69638e-05 -0.00171616 0
2.89281e-05 -0.000653048 0
2.51529e-05 -0.00171513 0
4.79816e-05 -0.00065727 0
2.55801e-05 -0.00171267 0
3.38639e-05 -0.000654241 0
1.69638e-05 -0.00171616 0
1.91293e-05 -0.000661365 0
-2.64107e-06 -0.00171045 0
4.79816e-05 -0.00065727 0
2.55801e-05 -0.00171267 0
2.54464e-05 -0.000666329 0
1.40982e-06 -0.00170198 0
1.91293e-05 -0.000661365 0
-2.64107e-06 -0.00171045 0
2.54464e-05 -0.000666329 0
-4.30691e-05 -0.000671757 0
1.40982e-06 -0.00170198 0
-5.33528e-05 -0.00169898 0
-4.52981e-05 -0.00067094 0
-3.58905e-05 -0.0016946 0
-4.30691e-05 -0.000671757 0
-5.33528e-05 -0.00169898 0
-0.000168715 -0.000667943 0
-0.000132944 -0.00170082 0
-4.52981e-05 -0.00067094 0
-3.58905e-05 -0.0016946 0
-0.000174116 -0.00066055 0
-0.000130363 -0.00167364 0
-0.000168715 -0.000667943 0
-0.000132944 -0.00170082 0
-0.000436864 -0.000653057 0
-0.000381172 -0.00166919 0
-0.000174116 -0.00066055 0
-0.000130363 -0.00167364 0
-0.000557512 -0.000641529 0
-0.000506314 -0.00159019 0
-0.000436864 -0.000653057 0
-0.000381172 -0.00166919 0
-0.000557512 -0.000641529 0
-0.00125742 -0.000626629 0
-0.000506314 -0.00159019 0
-0.00119679 -0.00153174 0
-0.00125742 -0.000626629 0
-0.00187042 -0.000613847 0
-0.00119679 -0.00153174 0
-0.00182804 -0.00126715 0
-0.00377076 -0.000599006 0
-0.00367953 -0.000993023 0
-0.00187042 -0.000613847 0
-0.00182804 -0.00126715 0
-0.00581793 -0.000578367 0
-0.00568082 -0.000224024 0
-0.00377076 -0.000599006 0
-0.00367953 -0.000993023 0
-0.0105047 -0.000525007 0
-0.0101898 0.000660418 0
-0.00581793 -0.000578367 0
-0.00568082 -0.000224024 0
-0.0157952 -0.000470696 0
-0.0153369 0.00264424 0
-0.0105047 -0.000525007 0
-0.0101898 0.000660418 0
-0.0261986 -0.000349415 0
-0.0254585 0.00504481 0
-0.0157952 -0.000470696 0
-0.0153369 0.00264424 0
-0.0384402 -0.000293861 0
-0.0372099 0.0100137 0
-0.0261986 -0.000349415 0
-0.0254585 0.00504481 0
-0.0609561 5.26184e-05 0
-0.0590874 0.0157364 0
-0.0384402 -0.000293861 0
-0.0372099 0.0100137 0
-0.0886256 0.000306954 0
-0.0863679 0.0281726 0
-0.0609561 5.26184e-05 0
-0.0590874 0.0157364 0
-0.134008 0.000257293 0
-0.133265 0.0292949 0
-0.0886256 0.000306954 0
-0.0863679 0.0281726 0
-0.151511 -0.000251511 0
-0.172465 -0.0073808 0
-0.134008 0.000257293 0
-0.133265 0.0292949 0
0.00788424 -0.00260694 0
0.0172303 -0.039156 0
-0.0213867 -0.00198166 0
-0.0144636 -0.0568642 0
-7.66095e-06 -0.000385787 0
-3.90617e-05 -0.000828605 0
5.50157e-06 -0.000376583 0
-2.63504e-05 -0.000829706 0
-7.66095e-06 -0.000385787 0
-2.59335e-05 -0.000394521 0
-3.90617e-05 -0.000828605 0
-4.29603e-05 -0.000825751 0
-3.87648e-05 -0.000397264 0
-5.00007e-05 -0.000825739 0
-2.59335e-05 -0.000394521 0
-4.29603e-05 -0.000825751 0
-3.87648e-05 -0.000397264 0
-4.07977e-05 -0.000401913 0
-5.00007e-05 -0.000825739 0
-5.50706e-05 -0.000823536 0
-4.07977e-05 -0.000401913 0
-4.14148e-05 -0.000403844 0
-5.50706e-05 -0.000823536 0
-5.43763e-05 -0.000825458 0
-4.14148e-05 -0.000403844 0
-3.8799e-05 -0.000406593 0
-5.43763e-05 -0.000825458 0
-4.99383e-05 -0.000827585 0
-3.8799e-05 -0.000406593 0
-3.28612e-05 -0.00040641 0
-4.99383e-05 -0.000827585 0
-4.55041e-05 -0.000832559 0
-3.28612e-05 -0.00040641 0
-2.53384e-05 -0.000409181 0
-4.55041e-05 -0.000832559 0
-4.10869e-05 -0.000836361 0
-2.53384e-05 -0.000409181 0
-2.01771e-05 -0.000411021 0
-4.10869e-05 -0.000836361 0
-3.26277e-05 -0.000840309 0
-2.01771e-05 -0.000411021 0
-1.52173e-05 -0.000413236 0
-3.26277e-05 -0.000840309 0
-2.46328e-05 -0.000843602 0
-1.52173e-05 -0.000413236 0
-1.04906e-05 -0.000414156 0
-2.46328e-05 -0.000843602 0
-1.68599e-05 -0.000846313 0
-1.04906e-05 -0.000414156 0
-6.58518e-06 -0.000415423 0
-1.68599e-05 -0.000846313 0
-1.09004e-05 -0.000848244 0
-6.58518e-06 -0.000415423 0
-3.37636e-06 -0.00041565 0
-1.09004e-05 -0.000848244 0
-5.31001e-06 -0.000849735 0
-3.37636e-06 -0.00041565 0
-1.20818e-06 -0.000416041 0
-5.31001e-06 -0.000849735 0
-2.22183e-06 -0.00085094 0
-1.20818e-06 -0.000416041 0
1.15314e-06 -0.000416081 0
-2.22183e-06 -0.00085094 0
3.57792e-08 -0.00085233 0
1.15314e-06 -0.000416081 0
4.33499e-06 -0.000416312 0
3.57792e-08 -0.00085233 0
-1.50005e-07 -0.000854286 0
4.33499e-06 -0.000416312 0
5.70646e-06 -0.000416968 0
-1.50005e-07 -0.000854286 0
-4.17171e-07 -0.000855779 0
5.70646e-06 -0.000416968 0
5.60441e-06 -0.000417857 0
-4.17171e-07 -0.000855779 0
1.07363e-07 -0.000857785 0
5.60441e-06 -0.000417857 0
5.30707e-06 -0.000418762 0
1.07363e-07 -0.000857785 0
6.94566e-07 -0.000859725 0
5.30707e-06 -0.000418762 0
3.43206e-06 -0.000419494 0
6.94566e-07 -0.000859725 0
4.12379e-07 -0.00086145 0
3.43206e-06 -0.000419494 0
2.35892e-06 -0.000419763 0
4.12379e-07 -0.00086145 0
-4.20034e-08 -0.000863181 0
2.35892e-06 -0.000419763 0
1.38573e-06 -0.000420212 0
-4.20034e-08 -0.000863181 0
-8.13559e-07 -0.0008642 0
1.38573e-06 -0.000420212 0
9.98757e-07 -0.000420227 0
-8.13559e-07 -0.0008642 0
-1.08979e-06 -0.000864896 0
9.98757e-07 -0.000420227 0
4.67907e-07 -0.000420194 0
-1.08979e-06 -0.000864896 0
-2.1472e-06 -0.000865298 0
0.119135 -0.115604 0
0.139984 -0.0700018 0
0.176155 -0.172129 0
0.209766 -0.104883 0
0.119135 -0.115604 0
0.0784669 -0.077179 0
0.139984 -0.0700018 0
0.0919451 -0.0517454 0
0.0784669 -0.077179 0
0.054599 -0.0542697 0
0.0919451 -0.0517454 0
0.0619743 -0.0399282 0
0.0378272 -0.0377946 0
0.0421681 -0.0297048 0
0.054599 -0.0542697 0
0.0619743 -0.0399282 0
0.0266501 -0.0269224 0
0.0288967 -0.0220751 0
0.0378272 -0.0377946 0
0.0421681 -0.0297048 0
0.0266501 -0.0269224 0
0.018272 -0.0186003 0
0.0288967 -0.0220751 0
0.0194151 -0.0158696 0
0.018272 -0.0186003 0
0.0124911 -0.0129317 0
0.0194151 -0.0158696 0
0.0128912 -0.0112938 0
0.00824366 -0.00870307 0
0.00825975 -0.00780285 0
0.0124911 -0.0129317 0
0.0128912 -0.0112938 0
0.00824366 -0.00870307 0
0.00538857 -0.00589686 0
0.00825975 -0.00780285 0
0.00516794 -0.00538576 0
0.00538857 -0.00589686 0
0.00339345 -0.00390111 0
0.00516794 -0.00538576 0
0.00305341 -0.00367817 0
0.00339345 -0.00390111 0
0.00212174 -0.00264007 0
0.00305341 -0.00367817 0
0.00170349 -0.00256086 0
0.00212174 -0.00264007 0
0.00127495 -0.00178575 0
0.00170349 -0.00256086 0
0.000822473 -0.0018123 0
0.000764131 -0.00127185 0
0.000287712 -0.00134196 0
0.00127495 -0.00178575 0
0.000822473 -0.0018123 0
0.000434767 -0.000939793 0
-4.32794e-05 -0.0010354 0
0.000764131 -0.00127185 0
0.000287712 -0.00134196 0
0.000434767 -0.000939793 0
0.000242247 -0.000744242 0
-4.32794e-05 -0.0010354 0
-0.000233121 -0.000851333 0
0.000242247 -0.000744242 0
0.00012648 -0.000624986 0
-0.000233121 -0.000851333 0
-0.000339603 -0.000734651 0
0.00012648 -0.000624986 0
6.06686e-05 -0.000554293 0
-0.000339603 -0.000734651 0
-0.000397649 -0.000668226 0
6.06686e-05 -0.000554293 0
3.21974e-05 -0.000519668 0
-0.000397649 -0.000668226 0
-0.000420797 -0.000631178 0
3.21974e-05 -0.000519668 0
1.58487e-05 -0.000497997 0
-0.000420797 -0.000631178 0
-0.000430435 -0.000611874 0
1.58487e-05 -0.000497997 0
2.92257e-05 -0.000504136 0
-0.000430435 -0.000611874 0
-0.000414863 -0.000609545 0
2.92257e-05 -0.000504136 0
3.24205e-05 -0.000504881 0
-0.000414863 -0.000609545 0
-0.000405886 -0.000616794 0
6.69418e-05 -0.000525506 0
-0.000367901 -0.00064746 0
3.24205e-05 -0.000504881 0
-0.000405886 -0.000616794 0
8.41789e-05 -0.000532874 0
-0.000370445 -0.000662313 0
6.69418e-05 -0.000525506 0
-0.000367901 -0.00064746 0
8.41789e-05 -0.000532874 0
0.000130327 -0.000579505 0
-0.000370445 -0.000662313 0
-0.000326059 -0.00068819 0
0.000135036 -0.000597171 0
-0.000319633 -0.000685558 0
0.000130327 -0.000579505 0
-0.000326059 -0.00068819 0
0.000173821 -0.000664119 0
-0.000223307 -0.000717213 0
0.000135036 -0.000597171 0
-0.000319633 -0.000685558 0
0.000173821 -0.000664119 0
0.000149243 -0.000639323 0
-0.000223307 -0.000717213 0
-0.000215365 -0.000740841 0
0.000226141 -0.000700723 0
-0.000150192 -0.000808158 0
0.000149243 -0.000639323 0
-0.000215365 -0.000740841 0
0.000226141 -0.000700723 0
0.000226929 -0.000700989 0
-0.000150192 -0.000808158 0
-0.000199947 -0.000797254 0
0.000226929 -0.000700989 0
0.000318745 -0.000812312 0
-0.000199947 -0.000797254 0
-6.70381e-05 -0.00089441 0
0.000318745 -0.000812312 0
0.000251118 -0.000746614 0
-6.70381e-05 -0.00089441 0
-9.556e-05 -0.000795894 0
0.000251118 -0.000746614 0
0.000177207 -0.000646229 0
-9.556e-05 -0.000795894 0
0.000182833 -0.00103489 0
0.000177207 -0.000646229 0
0.000146187 -0.000456587 0
0.000182833 -0.00103489 0
7.72815e-06 -0.000511503 0
0.000146187 -0.000456587 0
9.31116e-05 -0.000437103 0
7.72815e-06 -0.000511503 0
-5.00332e-05 -0.000875146 0
9.31116e-05 -0.000437103 0
0.00025647 -0.000283203 0
-5.00332e-05 -0.000875146 0
0.000144695 -0.000730537 0
0.00025647 -0.000283203 0
0.000208245 -0.000367354 0
0.000144695 -0.000730537 0
-0.000203123 -0.000829045 0
0.000208245 -0.000367354 0
0.000128943 -0.000442717 0
-0.000203123 -0.000829045 0
8.04818e-05 -0.00077037 0
0.000128943 -0.000442717 0
-0.000106898 -0.000398104 0
8.04818e-05 -0.00077037 0
-3.01623e-05 -0.000894755 0
-1.08979e-06 -0.000864896 0
-2.1472e-06 -0.000865298 0
-2.41328e-06 -0.000479873 0
-3.84374e-06 -0.000482328 0
-2.41328e-06 -0.000479873 0
-3.84374e-06 -0.000482328 0
-4.9922e-06 -0.000819504 0
-6.76675e-06 -0.000820852 0
-4.9922e-06 -0.000819504 0
-6.76675e-06 -0.000820852 0
-8.17743e-06 -0.000529174 0
-9.06548e-06 -0.000531186 0
-8.17743e-06 -0.000529174 0
-9.06548e-06 -0.000531186 0
-1.03841e-05 -0.000779861 0
-1.31028e-05 -0.000782265 0
-1.03841e-05 -0.000779861 0
-1.31028e-05 -0.000782265 0
-1.44036e-05 -0.000551125 0
-1.60427e-05 -0.000553162 0
-1.44036e-05 -0.000551125 0
-1.60427e-05 -0.000553162 0
-1.6707e-05 -0.000714097 0
-1.93784e-05 -0.000716653 0
-2.11466e-05 -0.000512517 0
-1.6707e-05 -0.000714097 0
-2.27947e-05 -0.000515058 0
-1.93784e-05 -0.000716653 0
-2.11466e-05 -0.000512517 0
-2.27947e-05 -0.000515058 0
-2.46771e-05 -0.000592882 0
-2.61163e-05 -0.000595881 0
-2.46771e-05 -0.000592882 0
-2.61163e-05 -0.000595881 0
-3.01149e-05 -0.000411854 0
-3.06814e-05 -0.000415936 0
-3.01149e-05 -0.000411854 0
-3.06814e-05 -0.000415936 0
-3.65854e-05 -0.000439239 0
-3.68945e-05 -0.00044464 0
-3.65854e-05 -0.000439239 0
-3.68945e-05 -0.00044464 0
-4.58017e-05 -0.000297538 0
-4.61632e-05 -0.000305557 0
-4.58017e-05 -0.000297538 0
-4.61632e-05 -0.000305557 0
-5.84832e-05 -0.000304653 0
-6.14064e-05 -0.000315835 0
-5.84832e-05 -0.000304653 0
-6.14064e-05 -0.000315835 0
-7.51994e-05 -0.000215548 0
-8.25371e-05 -0.000230207 0
-7.51994e-05 -0.000215548 0
-8.25371e-05 -0.000230207 0
-9.61135e-05 -0.000213025 0
-0.000111931 -0.000231339 0
-9.61135e-05 -0.000213025 0
-0.000111931 -0.000231339 0
-0.000119588 -0.000170957 0
-0.000147675 -0.000190868 0
-0.000119588 -0.000170957 0
-0.000147675 -0.000190868 0
-0.000142436 -0.000149647 0
-0.000185526 -0.000168564 0
-0.000142436 -0.000149647 0
-0.000185526 -0.000168564 0
-0.000159482 -0.000146443 0
-0.000217783 -0.000159309 0
-0.000159482 -0.000146443 0
-0.000217783 -0.000159309 0
-0.000164653 -0.000104239 0
-0.000232142 -0.000106641 0
-0.000164653 -0.000104239 0
-0.000232142 -0.000106641 0
-0.000155473 -0.000161928 0
-0.000221122 -0.000151413 0
-0.000155473 -0.000161928 0
-0.000221122 -0.000151413 0
-0.00013263 -0.000127247 0
-0.000185841 -0.000108172 0
-0.00013263 -0.000127247 0
-0.000185841 -0.000108172 0
-0.000103726 -0.000296773 0
-0.000140926 -0.00027376 0
-0.000103726 -0.000296773 0
-0.000140926 -0.00027376 0
-7.25293e-05 -0.000291323 0
-9.51355e-05 -0.000270482 0
-7.25293e-05 -0.000291323 0
-9.51355e-05 -0.000270482 0
-4.88039e-05 -0.000598321 0
-6.02361e-05 -0.000580951 0
-4.88039e-05 -0.000598321 0
-6.02361e-05 -0.000580951 0
-2.6366e-05 -0.000583207 0
-3.10238e-05 -0.000572847 0
-2.6366e-05 -0.000583207 0
-3.10238e-05 -0.000572847 0
-2.00111e-05 -0.000997836 0
-2.26984e-05 -0.000989927 0
-2.00111e-05 -0.000997836 0
-2.26984e-05 -0.000989927 0
-8.00833e-06 -0.00086323 0
-7.80508e-06 -0.000858415 0
-8.00833e-06 -0.00086323 0
-7.80508e-06 -0.000858415 0
-8.34081e-06 -0.00134289 0
-9.06122e-06 -0.0013398 0
-8.34081e-06 -0.00134289 0
-9.06122e-06 -0.0013398 0
2.64808e-07 -0.000963131 0
2.01405e-06 -0.000963053 0
2.64808e-07 -0.000963131 0
2.01405e-06 -0.000963053 0
-8.82338e-06 -0.00154913 0
-7.64589e-06 -0.00155197 0
-8.82338e-06 -0.00154913 0
-7.64589e-06 -0.00155197 0
-9.67507e-06 -0.000871554 0
-8.70921e-06 -0.000873309 0
-9.67507e-06 -0.000871554 0
-8.70921e-06 -0.000873309 0
-1.49356e-05 -0.00173524 0
-1.26859e-05 -0.00173748 0
0.139984 -0.0700018 0
0.134417 -0.00481956 0
0.209766 -0.104883 0
0.204374 -0.0077419 0
0.139984 -0.0700018 0
0.0919451 -0.0517454 0
0.134417 -0.00481956 0
0.0899657 -0.0166042 0
0.0919451 -0.0517454 0
0.0619743 -0.0399282 0
0.0899657 -0.0166042 0
0.0615158 -0.0192196 0
0.0421681 -0.0297048 0
0.0424958 -0.0173787 0
0.0619743 -0.0399282 0
0.0615158 -0.0192196 0
0.0288967 -0.0220751 0
0.0292361 -0.0145308 0
0.0421681 -0.0297048 0
0.0424958 -0.0173787 0
0.0288967 -0.0220751 0
0.0194151 -0.0158696 0
0.0292361 -0.0145308 0
0.019753 -0.0111173 0
0.0194151 -0.0158696 0
0.0128912 -0.0112938 0
0.019753 -0.0111173 0
0.0131485 -0.00827952 0
0.00825975 -0.00780285 0
0.00847943 -0.00582058 0
0.0128912 -0.0112938 0
0.0131485 -0.00827952 0
0.00825975 -0.00780285 0
0.00516794 -0.00538576 0
0.00847943 -0.00582058 0
0.00532901 -0.00407078 0
0.00516794 -0.00538576 0
0.00305341 -0.00367817 0
0.00532901 -0.00407078 0
0.00320372 -0.00272363 0
0.00305341 -0.00367817 0
0.00170349 -0.00256086 0
0.00320372 -0.00272363 0
0.00185203 -0.00185659 0
0.00170349 -0.00256086 0
0.000822473 -0.0018123 0
0.00185203 -0.00185659 0
0.00097679 -0.00123353 0
0.000287712 -0.00134196 0
0.00044845 -0.00086216 0
0.000822473 -0.0018123 0
0.00097679 -0.00123353 0
-4.32794e-05 -0.0010354 0
0.000114813 -0.000612459 0
0.000287712 -0.00134196 0
0.00044845 -0.00086216 0
-4.32794e-05 -0.0010354 0
-0.000233121 -0.000851333 0
0.000114813 -0.000612459 0
-8.3427e-05 -0.000466886 0
-0.000233121 -0.000851333 0
-0.000339603 -0.000734651 0
-8.3427e-05 -0.000466886 0