# vtk DataFile Version 3.0
#This file was generated by the deal.II library on 2016/12/20 at 10:57:03
ASCII
DATASET UNSTRUCTURED_GRID

POINTS 7444 double
-1 0.5 0
-0.978723 0.478723 0
-0.970149 0.5 0
-0.964976 0.485465 0
0.12 -0.5 0
0.15 -0.5 0
0.119014 -0.4708 0
0.15 -0.471429 0
0.11755 -0.441479 0
0.119014 -0.4708 0
0.15 -0.442857 0
0.15 -0.471429 0
0.117242 -0.412206 0
0.11755 -0.441479 0
0.15 -0.414286 0
0.15 -0.442857 0
0.118129 -0.383064 0
0.117242 -0.412206 0
0.15 -0.385714 0
0.15 -0.414286 0
0.12021 -0.354337 0
0.118129 -0.383064 0
0.15 -0.357143 0
0.15 -0.385714 0
0.121793 -0.32584 0
0.12021 -0.354337 0
0.15 -0.328571 0
0.15 -0.357143 0
0.122717 -0.296869 0
0.121793 -0.32584 0
0.15 -0.3 0
0.15 -0.328571 0
0.123759 -0.266752 0
0.122717 -0.296869 0
0.153091 -0.267708 0
0.15 -0.3 0
0.18456 -0.26795 0
0.153091 -0.267708 0
0.183333 -0.3 0
0.15 -0.3 0
0.216606 -0.268111 0
0.18456 -0.26795 0
0.216667 -0.3 0
0.183333 -0.3 0
0.24835 -0.26841 0
0.216606 -0.268111 0
0.25 -0.3 0
0.216667 -0.3 0
0.278782 -0.268564 0
0.24835 -0.26841 0
0.279437 -0.298917 0
0.25 -0.3 0
0.279638 -0.328111 0
0.279437 -0.298917 0
0.25 -0.328571 0
0.25 -0.3 0
0.27971 -0.356801 0
0.279638 -0.328111 0
0.25 -0.357143 0
0.25 -0.328571 0
0.279677 -0.385395 0
0.27971 -0.356801 0
0.25 -0.385714 0
0.25 -0.357143 0
0.279641 -0.413938 0
0.279677 -0.385395 0
0.25 -0.414286 0
0.25 -0.385714 0
0.279666 -0.442534 0
0.279641 -0.413938 0
0.25 -0.442857 0
0.25 -0.414286 0
0.279811 -0.471266 0
0.279666 -0.442534 0
0.25 -0.471429 0
0.25 -0.442857 0
0.28 -0.5 0
0.279811 -0.471266 0
0.25 -0.5 0
0.25 -0.471429 0
0.970149 0.5 0
0.970096 0.46978 0
1 0.5 0
1 0.469697 0
0.940299 0.5 0
0.940231 0.46984 0
0.970149 0.5 0
0.970096 0.46978 0
0.910448 0.5 0
0.910371 0.469856 0
0.940299 0.5 0
0.940231 0.46984 0
0.880597 0.5 0
0.880527 0.469909 0
0.910448 0.5 0
0.910371 0.469856 0
0.850746 0.5 0
0.850684 0.469926 0
0.880597 0.5 0
0.880527 0.469909 0
0.820896 0.5 0
0.820842 0.469978 0
0.850746 0.5 0
0.850684 0.469926 0
0.791045 0.5 0
0.791001 0.470016 0
0.820896 0.5 0
0.820842 0.469978 0
0.761194 0.5 0
0.761159 0.470055 0
0.791045 0.5 0
0.791001 0.470016 0
0.731343 0.5 0
0.731316 0.470091 0
0.761194 0.5 0
0.761159 0.470055 0
0.701493 0.5 0
0.701472 0.470118 0
0.731343 0.5 0
0.731316 0.470091 0
0.671642 0.5 0
0.671627 0.470134 0
0.701493 0.5 0
0.701472 0.470118 0
0.641791 0.5 0
0.64178 0.470142 0
0.671642 0.5 0
0.671627 0.470134 0
0.641791 0.5 0
0.61194 0.5 0
0.64178 0.470142 0
0.611934 0.470065 0
0.58209 0.5 0
0.582089 0.470002 0
0.61194 0.5 0
0.611934 0.470065 0
0.552239 0.5 0
0.552248 0.469853 0
0.58209 0.5 0
0.582089 0.470002 0
0.522388 0.5 0
0.522413 0.469718 0
0.552239 0.5 0
0.552248 0.469853 0
0.492537 0.5 0
0.492577 0.469656 0
0.522388 0.5 0
0.522413 0.469718 0
0.462687 0.5 0
0.462743 0.469571 0
0.492537 0.5 0
0.492577 0.469656 0
0.432836 0.5 0
0.432895 0.46963 0
0.462687 0.5 0
0.462743 0.469571 0
0.402985 0.5 0
0.403046 0.469669 0
0.432836 0.5 0
0.432895 0.46963 0
0.373134 0.5 0
0.373191 0.469745 0
0.402985 0.5 0
0.403046 0.469669 0
0.343284 0.5 0
0.343335 0.469723 0
0.373134 0.5 0
0.373191 0.469745 0
0.313433 0.5 0
0.313478 0.469741 0
0.343284 0.5 0
0.343335 0.469723 0
0.283582 0.5 0
0.283622 0.469783 0
0.313433 0.5 0
0.313478 0.469741 0
0.253731 0.5 0
0.253768 0.469742 0
0.283582 0.5 0
0.283622 0.469783 0
0.223881 0.5 0
0.223918 0.469737 0
0.253731 0.5 0
0.253768 0.469742 0
0.19403 0.5 0
0.194064 0.46981 0
0.223881 0.5 0
0.223918 0.469737 0
0.164179 0.5 0
0.16421 0.469881 0
0.19403 0.5 0
0.194064 0.46981 0
0.134328 0.5 0
0.134355 0.46994 0
0.164179 0.5 0
0.16421 0.469881 0
0.104478 0.5 0
0.1045 0.469997 0
0.134328 0.5 0
0.134355 0.46994 0
0.074627 0.5 0
0.074645 0.470051 0
0.104478 0.5 0
0.1045 0.469997 0
0.044776 0.5 0
0.04479 0.470093 0
0.074627 0.5 0
0.074645 0.470051 0
0.014925 0.5 0
0.014935 0.47012 0
0.044776 0.5 0
0.04479 0.470093 0
-0.014925 0.5 0
-0.014918 0.470135 0
0.014925 0.5 0
0.014935 0.47012 0
-0.044776 0.5 0
-0.044771 0.470143 0
-0.014925 0.5 0
-0.014918 0.470135 0
-0.074627 0.5 0
-0.074623 0.470146 0
-0.044776 0.5 0
-0.044771 0.470143 0
-0.104478 0.5 0
-0.104496 0.469979 0
-0.074627 0.5 0
-0.074623 0.470146 0
-0.134328 0.5 0
-0.134359 0.469935 0
-0.104478 0.5 0
-0.104496 0.469979 0
-0.164179 0.5 0
-0.164225 0.469839 0
-0.134328 0.5 0
-0.134359 0.469935 0
-0.164179 0.5 0
-0.19403 0.5 0
-0.164225 0.469839 0
-0.194083 0.469797 0
-0.223881 0.5 0
-0.22394 0.469753 0
-0.19403 0.5 0
-0.194083 0.469797 0
-0.253731 0.5 0
-0.253798 0.469819 0
-0.223881 0.5 0
-0.22394 0.469753 0
-0.283582 0.5 0
-0.283647 0.470019 0
-0.253731 0.5 0
-0.253798 0.469819 0
-0.313433 0.5 0
-0.313491 0.470151 0
-0.283582 0.5 0
-0.283647 0.470019 0
-0.343284 0.5 0
-0.343348 0.470381 0
-0.313433 0.5 0
-0.313491 0.470151 0
-0.343284 0.5 0
-0.373134 0.5 0
-0.343348 0.470381 0
-0.373195 0.470395 0
-0.373134 0.5 0
-0.402985 0.5 0
-0.373195 0.470395 0
-0.403049 0.470404 0
-0.432836 0.5 0
-0.432937 0.470297 0
-0.402985 0.5 0
-0.403049 0.470404 0
-0.462687 0.5 0
-0.462848 0.469995 0
-0.432836 0.5 0
-0.432937 0.470297 0
-0.492537 0.5 0
-0.492807 0.469765 0
-0.462687 0.5 0
-0.462848 0.469995 0
-0.522388 0.5 0
-0.52276 0.46958 0
-0.492537 0.5 0
-0.492807 0.469765 0
-0.552239 0.5 0
-0.55273 0.469652 0
-0.522388 0.5 0
-0.52276 0.46958 0
-0.58209 0.5 0
-0.582662 0.469731 0
-0.552239 0.5 0
-0.55273 0.469652 0
-0.61194 0.5 0
-0.612594 0.469999 0
-0.58209 0.5 0
-0.582662 0.469731 0
-0.641791 0.5 0
-0.642647 0.470419 0
-0.61194 0.5 0
-0.612594 0.469999 0
-0.671642 0.5 0
-0.672638 0.470543 0
-0.641791 0.5 0
-0.642647 0.470419 0
-0.701493 0.5 0
-0.702968 0.4698 0
-0.671642 0.5 0
-0.672638 0.470543 0
-0.701493 0.5 0
-0.731343 0.5 0
-0.702968 0.4698 0
-0.733232 0.468149 0
-0.731343 0.5 0
-0.761194 0.5 0
-0.733232 0.468149 0
-0.765399 0.466448 0
-0.820896 0.5 0
-0.822797 0.47207 0
-0.791045 0.5 0
-0.795702 0.469563 0
0.31 -0.5 0
0.309694 -0.471123 0
0.28 -0.5 0
0.279811 -0.471266 0
0.31 -0.5 0
0.34 -0.5 0
0.309694 -0.471123 0
0.339686 -0.471033 0
0.37 -0.5 0
0.369721 -0.471055 0
0.34 -0.5 0
0.339686 -0.471033 0
0.37 -0.5 0
0.4 -0.5 0
0.369721 -0.471055 0
0.399756 -0.470957 0
0.4 -0.5 0
0.43 -0.5 0
0.399756 -0.470957 0
0.429805 -0.470822 0
0.43 -0.5 0
0.46 -0.5 0
0.429805 -0.470822 0
0.459835 -0.470712 0
0.46 -0.5 0
0.49 -0.5 0
0.459835 -0.470712 0
0.489873 -0.470554 0
0.49 -0.5 0
0.52 -0.5 0
0.489873 -0.470554 0
0.519906 -0.470379 0
0.52 -0.5 0
0.55 -0.5 0
0.519906 -0.470379 0
0.54993 -0.470248 0
0.55 -0.5 0
0.58 -0.5 0
0.54993 -0.470248 0
0.579948 -0.470155 0
0.58 -0.5 0
0.61 -0.5 0
0.579948 -0.470155 0
0.609962 -0.470091 0
0.61 -0.5 0
0.64 -0.5 0
0.609962 -0.470091 0
0.639972 -0.47005 0
0.64 -0.5 0
0.67 -0.5 0
0.639972 -0.47005 0
0.66998 -0.470026 0
0.67 -0.5 0
0.7 -0.5 0
0.66998 -0.470026 0
0.699986 -0.470013 0
0.7 -0.5 0
0.73 -0.5 0
0.699986 -0.470013 0
0.72999 -0.470006 0
0.73 -0.5 0
0.76 -0.5 0
0.72999 -0.470006 0
0.759994 -0.470003 0
0.76 -0.5 0
0.79 -0.5 0
0.759994 -0.470003 0
0.78998 -0.469916 0
0.79 -0.5 0
0.82 -0.5 0
0.78998 -0.469916 0
0.819956 -0.469877 0
0.82 -0.5 0
0.85 -0.5 0
0.819956 -0.469877 0
0.849929 -0.469833 0
0.85 -0.5 0
0.88 -0.5 0
0.849929 -0.469833 0
0.879924 -0.469805 0
0.88 -0.5 0
0.91 -0.5 0
0.879924 -0.469805 0
0.909913 -0.469792 0
0.91 -0.5 0
0.94 -0.5 0
0.909913 -0.469792 0
0.939922 -0.469775 0
0.94 -0.5 0
0.97 -0.5 0
0.939922 -0.469775 0
0.969956 -0.46974 0
0.97 -0.5 0
1 -0.5 0
0.969956 -0.46974 0
1 -0.469697 0
-0.553191 0.053191 0
-0.53184 0.075023 0
-0.574468 0.074468 0
-0.553204 0.096309 0
-0.553191 0.053191 0
-0.531915 0.031915 0
-0.53184 0.075023 0
-0.510492 0.053733 0
-0.531915 0.031915 0
-0.510638 0.010638 0
-0.510492 0.053733 0
-0.489127 0.032461 0
-0.510638 0.010638 0
-0.489362 -0.010638 0
-0.489127 0.032461 0
-0.467791 0.011178 0
-0.489362 -0.010638 0
-0.468085 -0.031915 0
-0.467791 0.011178 0
-0.446536 -0.010172 0
-0.446809 -0.053191 0
-0.42524 -0.031466 0
-0.468085 -0.031915 0
-0.446536 -0.010172 0
-0.425532 -0.074468 0
-0.404012 -0.052824 0
-0.446809 -0.053191 0
-0.42524 -0.031466 0
-0.425532 -0.074468 0
-0.404255 -0.095745 0
-0.404012 -0.052824 0
-0.382783 -0.074175 0
-0.404255 -0.095745 0
-0.382979 -0.117021 0
-0.382783 -0.074175 0
-0.361545 -0.095511 0
-0.382979 -0.117021 0
-0.361702 -0.138298 0
-0.361545 -0.095511 0
-0.340288 -0.116831 0
-0.361702 -0.138298 0
-0.340426 -0.159574 0
-0.340288 -0.116831 0
-0.319034 -0.138159 0
-0.340426 -0.159574 0
-0.319149 -0.180851 0
-0.319034 -0.138159 0
-0.297766 -0.159484 0
-0.319149 -0.180851 0
-0.297872 -0.202128 0
-0.297766 -0.159484 0
-0.276489 -0.180797 0
-0.297872 -0.202128 0
-0.276596 -0.223404 0
-0.276489 -0.180797 0
-0.255087 -0.202105 0
-0.255319 -0.244681 0
-0.233674 -0.223466 0
-0.276596 -0.223404 0
-0.255087 -0.202105 0
-0.234043 -0.265957 0
-0.212119 -0.244916 0
-0.255319 -0.244681 0
-0.233674 -0.223466 0
-0.234043 -0.265957 0
-0.212766 -0.287234 0
-0.212119 -0.244916 0
-0.190657 -0.266392 0
-0.191489 -0.308511 0
-0.169261 -0.287934 0
-0.212766 -0.287234 0
-0.190657 -0.266392 0
-0.170213 -0.329787 0
-0.147854 -0.309624 0
-0.191489 -0.308511 0
-0.169261 -0.287934 0
-0.170213 -0.329787 0
-0.148936 -0.351064 0
-0.147854 -0.309624 0
-0.126431 -0.331364 0
-0.12766 -0.37234 0
-0.105256 -0.353368 0
-0.148936 -0.351064 0
-0.126431 -0.331364 0
-0.12766 -0.37234 0
-0.106383 -0.393617 0
-0.105256 -0.353368 0
-0.083924 -0.375263 0
-0.106383 -0.393617 0
-0.085106 -0.414894 0
-0.083924 -0.375263 0
-0.062097 -0.396824 0
-0.085106 -0.414894 0
-0.06383 -0.43617 0
-0.062097 -0.396824 0
-0.040132 -0.418076 0
-0.06383 -0.43617 0
-0.042553 -0.457447 0
-0.040132 -0.418076 0
-0.019646 -0.439891 0
-0.042553 -0.457447 0
-0.021277 -0.478723 0
-0.019646 -0.439891 0
-0.002475 -0.461393 0
-0.021277 -0.478723 0
0 -0.5 0
-0.002475 -0.461393 0
0.009599 -0.478226 0
0 -0.5 0
0.03 -0.5 0
0.009599 -0.478226 0
0.029922 -0.474701 0
0.03 -0.5 0
0.06 -0.5 0
0.029922 -0.474701 0
0.057397 -0.471689 0
0.06 -0.5 0
0.09 -0.5 0
0.057397 -0.471689 0
0.08796 -0.470463 0
0.09 -0.5 0
0.12 -0.5 0
0.08796 -0.470463 0
0.119014 -0.4708 0
[...]
POINT_DATA 7444
VECTORS momentum double
-0.00171804 0.000788379 0
-0.0185303 0.0176174 0
-0.0213783 0.00057333 0
-0.0305258 0.00827289 0
0.000342175 -0.000413683 0
9.01002e-05 -0.000421644 0
0.000409034 -0.00115225 0
7.6004e-05 -0.00108263 0
0.000255962 -0.00105891 0
0.000409034 -0.00115225 0
9.75708e-05 -0.00106033 0
7.6004e-05 -0.00108263 0
0.000446024 -0.00170695 0
0.000255962 -0.00105891 0
1.89646e-05 -0.00174748 0
9.75708e-05 -0.00106033 0
0.000621224 -0.0015866 0
0.000446024 -0.00170695 0
9.95262e-06 -0.00166433 0
1.89646e-05 -0.00174748 0
0.000726339 -0.00201351 0
0.000621224 -0.0015866 0
5.76387e-06 -0.00190442 0
9.95262e-06 -0.00166433 0
0.00114447 -0.00168004 0
0.000726339 -0.00201351 0
-7.88524e-05 -0.00154203 0
5.76387e-06 -0.00190442 0
0.00127072 -0.00212085 0
0.00114447 -0.00168004 0
0.000652945 -0.000622655 0
-7.88524e-05 -0.00154203 0
0.0013997 -0.00185708 0
0.00127072 -0.00212085 0
0.00105261 -0.00149718 0
0.000652945 -0.000622655 0
0.00107039 -0.00198616 0
0.00105261 -0.00149718 0
0.00134886 -0.000616031 0
0.000652945 -0.000622655 0
0.00117196 -0.00155403 0
0.00107039 -0.00198616 0
0.00104856 -0.000227471 0
0.00134886 -0.000616031 0
0.00167019 -0.00169074 0
0.00117196 -0.00155403 0
0.000664948 -0.00118231 0
0.00104856 -0.000227471 0
0.000943797 -0.00159422 0
0.00167019 -0.00169074 0
0.000417594 -0.00236925 0
0.000664948 -0.00118231 0
-0.00011342 -0.0014338 0
0.000417594 -0.00236925 0
-0.000268655 -0.0016448 0
0.000664948 -0.00118231 0
0.000105497 -0.00150666 0
-0.00011342 -0.0014338 0
7.90159e-05 -0.0012902 0
-0.000268655 -0.0016448 0
-1.14637e-05 -0.000982622 0
0.000105497 -0.00150666 0
-4.0243e-05 -0.00111585 0
7.90159e-05 -0.0012902 0
3.12621e-05 -0.00115783 0
-1.14637e-05 -0.000982622 0
1.87601e-05 -0.00108663 0
-4.0243e-05 -0.00111585 0
-1.56077e-05 -0.000671939 0
3.12621e-05 -0.00115783 0
-1.14135e-05 -0.000714926 0
1.87601e-05 -0.00108663 0
-7.30982e-06 -0.000944128 0
-1.56077e-05 -0.000671939 0
4.63992e-06 -0.00092067 0
-1.14135e-05 -0.000714926 0
-4.78666e-06 -0.000403674 0
-7.30982e-06 -0.000944128 0
-3.30455e-06 -0.000417654 0
4.63992e-06 -0.00092067 0
-0.000133473 -0.000654075 0
-0.000124163 -0.00176624 0
-0.000122542 -0.000654274 0
-0.000110433 -0.00176675 0
-0.000142491 -0.000654612 0
-0.00013635 -0.00176821 0
-0.000133473 -0.000654075 0
-0.000124163 -0.00176624 0
-0.000146995 -0.000654233 0
-0.000140552 -0.00177047 0
-0.000142491 -0.000654612 0
-0.00013635 -0.00176821 0
-0.000149951 -0.000653337 0
-0.000144099 -0.00177183 0
-0.000146995 -0.000654233 0
-0.000140552 -0.00177047 0
-0.000148839 -0.000652623 0
-0.000142186 -0.00177337 0
-0.000149951 -0.000653337 0
-0.000144099 -0.00177183 0
-0.00014572 -0.000651174 0
-0.000138723 -0.00177452 0
-0.000148839 -0.000652623 0
-0.000142186 -0.00177337 0
-0.000137655 -0.000650397 0
-0.000131182 -0.00177588 0
-0.00014572 -0.000651174 0
-0.000138723 -0.00177452 0
-0.000127602 -0.000648794 0
-0.000121032 -0.00177802 0
-0.000137655 -0.000650397 0
-0.000131182 -0.00177588 0
-0.000112228 -0.000647514 0
-0.000108665 -0.00178039 0
-0.000127602 -0.000648794 0
-0.000121032 -0.00177802 0
-9.47773e-05 -0.000646678 0
-9.32199e-05 -0.00178341 0
-0.000112228 -0.000647514 0
-0.000108665 -0.00178039 0
-7.28349e-05 -0.000645385 0
-7.58062e-05 -0.00178627 0
-9.47773e-05 -0.000646678 0
-9.32199e-05 -0.00178341 0
-4.88166e-05 -0.000644599 0
-6.10512e-05 -0.00179037 0
-7.28349e-05 -0.000645385 0
-7.58062e-05 -0.00178627 0
-4.88166e-05 -0.000644599 0
-2.73138e-05 -0.000645131 0
-6.10512e-05 -0.00179037 0
-4.48158e-05 -0.00179523 0
-6.89436e-06 -0.000645421 0
-3.18184e-05 -0.00180189 0
-2.73138e-05 -0.000645131 0
-4.48158e-05 -0.00179523 0
8.41148e-06 -0.000648063 0
-2.06693e-05 -0.00180761 0
-6.89436e-06 -0.000645421 0
-3.18184e-05 -0.00180189 0
1.44235e-05 -0.000650654 0
-7.45668e-06 -0.00181058 0
8.41148e-06 -0.000648063 0
-2.06693e-05 -0.00180761 0
1.97508e-05 -0.000651786 0
2.03104e-06 -0.00180961 0
1.44235e-05 -0.000650654 0
-7.45668e-06 -0.00181058 0
1.41051e-05 -0.000653665 0
5.27802e-06 -0.00180677 0
1.97508e-05 -0.000651786 0
2.03104e-06 -0.00180961 0
1.30062e-07 -0.000654133 0
3.44851e-06 -0.00180262 0
1.41051e-05 -0.000653665 0
5.27802e-06 -0.00180677 0
-1.20738e-05 -0.000653067 0
-1.86804e-06 -0.00179806 0
1.30062e-07 -0.000654133 0
3.44851e-06 -0.00180262 0
-1.58681e-05 -0.000651127 0
-7.28087e-06 -0.00179554 0
-1.20738e-05 -0.000653067 0
-1.86804e-06 -0.00179806 0
-8.38823e-06 -0.000650992 0
-3.14127e-06 -0.00179134 0
-1.58681e-05 -0.000651127 0
-7.28087e-06 -0.00179554 0
1.03269e-05 -0.000650521 0
1.87296e-05 -0.00178886 0
-8.38823e-06 -0.000650992 0
-3.14127e-06 -0.00179134 0
5.26894e-05 -0.000650302 0
5.88181e-05 -0.00177989 0
1.03269e-05 -0.000650521 0
1.87296e-05 -0.00178886 0
0.000123066 -0.000651025 0
0.000126701 -0.00176301 0
5.26894e-05 -0.000650302 0
5.88181e-05 -0.00177989 0
0.000219426 -0.000653736 0
0.000230044 -0.00173734 0
0.000123066 -0.000651025 0
0.000126701 -0.00176301 0
0.000351997 -0.000656779 0
0.000380649 -0.00170287 0
0.000219426 -0.000653736 0
0.000230044 -0.00173734 0
0.000541431 -0.000654559 0
0.000588825 -0.001663 0
0.000351997 -0.000656779 0
0.000380649 -0.00170287 0
0.000792561 -0.000650225 0
0.000854724 -0.00161274 0
0.000541431 -0.000654559 0
0.000588825 -0.001663 0
0.00111532 -0.000644074 0
0.00119321 -0.00154826 0
0.000792561 -0.000650225 0
0.000854724 -0.00161274 0
0.00150112 -0.000636467 0
0.00159459 -0.00146657 0
0.00111532 -0.000644074 0
0.00119321 -0.00154826 0
0.00195773 -0.000628517 0
0.00206307 -0.00136205 0
0.00150112 -0.000636467 0
0.00159459 -0.00146657 0
0.00244747 -0.000623061 0
0.00256521 -0.00122975 0
0.00195773 -0.000628517 0
0.00206307 -0.00136205 0
0.00296048 -0.000617997 0
0.0030972 -0.00106582 0
0.00244747 -0.000623061 0
0.00256521 -0.00122975 0
0.00341472 -0.000611959 0
0.003568 -0.000864631 0
0.00296048 -0.000617997 0
0.0030972 -0.00106582 0
0.003774 -0.00060644 0
0.00393584 -0.000615403 0
0.00341472 -0.000611959 0
0.003568 -0.000864631 0
0.00386705 -0.000600884 0
0.00404922 -0.000311172 0
0.003774 -0.00060644 0
0.00393584 -0.000615403 0
0.00364615 -0.000596242 0
0.00384801 5.84869e-05 0
0.00386705 -0.000600884 0
0.00404922 -0.000311172 0
0.00288046 -0.000590599 0
0.00310034 0.000489692 0
0.00364615 -0.000596242 0
0.00384801 5.84869e-05 0
0.00288046 -0.000590599 0
0.00150718 -0.000584368 0
0.00310034 0.000489692 0
0.00175193 0.00101434 0
-0.0007692 -0.000567716 0
-0.000494384 0.0016092 0
0.00150718 -0.000584368 0
0.00175193 0.00101434 0
-0.00399782 -0.000549439 0
-0.00370527 0.00236213 0
-0.0007692 -0.000567716 0
-0.000494384 0.0016092 0
-0.00855028 -0.000517264 0
-0.00825931 0.00322549 0
-0.00399782 -0.000549439 0
-0.00370527 0.00236213 0
-0.0144994 -0.000485548 0
-0.0142298 0.0043487 0
-0.00855028 -0.000517264 0
-0.00825931 0.00322549 0
-0.022236 -0.000432544 0
-0.0220264 0.00561873 0
-0.0144994 -0.000485548 0
-0.0142298 0.0043487 0
-0.022236 -0.000432544 0
-0.0319154 -0.000383761 0
-0.0220264 0.00561873 0
-0.0318159 0.00734933 0
-0.0319154 -0.000383761 0
-0.0439036 -0.000315447 0
-0.0318159 0.00734933 0
-0.0439366 0.00928992 0
-0.0585154 -0.000259437 0
-0.0587772 0.0118377 0
-0.0439036 -0.000315447 0
-0.0439366 0.00928992 0
-0.0758793 -0.000179769 0
-0.0763534 0.0145826 0
-0.0585154 -0.000259437 0
-0.0587772 0.0118377 0
-0.0964664 -0.00013291 0
-0.0974185 0.0178435 0
-0.0758793 -0.000179769 0
-0.0763534 0.0145826 0
-0.119578 -9.69676e-05 0
-0.12091 0.0205724 0
-0.0964664 -0.00013291 0
-0.0974185 0.0178435 0
-0.145991 -0.000117776 0
-0.148028 0.0236774 0
-0.119578 -9.69676e-05 0
-0.12091 0.0205724 0
-0.174243 -9.61267e-05 0
-0.17619 0.0258483 0
-0.145991 -0.000117776 0
-0.148028 0.0236774 0
-0.20629 -4.42143e-05 0
-0.20945 0.0293957 0
-0.174243 -9.61267e-05 0
-0.17619 0.0258483 0
-0.240805 -0.000280789 0
-0.242091 0.0319231 0
-0.20629 -4.42143e-05 0
-0.20945 0.0293957 0
-0.281004 0.00042856 0
-0.283576 0.0374576 0
-0.240805 -0.000280789 0
-0.242091 0.0319231 0
-0.325359 0.000729659 0
-0.322393 0.0385063 0
-0.281004 0.00042856 0
-0.283576 0.0374576 0
-0.325359 0.000729659 0
-0.36506 0.000404073 0
-0.322393 0.0385063 0
-0.370892 0.0292702 0
-0.36506 0.000404073 0
-0.384846 0.000500704 0
-0.370892 0.0292702 0
-0.401878 0.00247718 0
-0.351977 -0.00110756 0
-0.343066 -0.0404693 0
-0.380879 -0.00145244 0
-0.385364 -0.039162 0
-1.69342e-05 -0.000407617 0
-2.7889e-05 -0.00094327 0
-4.78666e-06 -0.000403674 0
-7.30982e-06 -0.000944128 0
-1.69342e-05 -0.000407617 0
-4.23265e-05 -0.000405461 0
-2.7889e-05 -0.00094327 0
-4.35089e-05 -0.00094779 0
-6.6731e-05 -0.000409448 0
-7.01089e-05 -0.000940485 0
-4.23265e-05 -0.000405461 0
-4.35089e-05 -0.00094779 0
-6.6731e-05 -0.000409448 0
-8.88824e-05 -0.000409676 0
-7.01089e-05 -0.000940485 0
-9.46759e-05 -0.000940274 0
-8.88824e-05 -0.000409676 0
-0.000110471 -0.000413535 0
-9.46759e-05 -0.000940274 0
-0.000119066 -0.000938168 0
-0.000110471 -0.000413535 0
-0.000133017 -0.000414246 0
-0.000119066 -0.000938168 0
-0.000138279 -0.000941877 0
-0.000133017 -0.000414246 0
-0.000150533 -0.000415393 0
-0.000138279 -0.000941877 0
-0.000159807 -0.000945155 0
-0.000150533 -0.000415393 0
-0.000167493 -0.00041722 0
-0.000159807 -0.000945155 0
-0.000179226 -0.000950053 0
-0.000167493 -0.00041722 0
-0.000184126 -0.000419861 0
-0.000179226 -0.000950053 0
-0.000194131 -0.000953323 0
-0.000184126 -0.000419861 0
-0.000199814 -0.000421592 0
-0.000194131 -0.000953323 0
-0.000206351 -0.00095763 0
-0.000199814 -0.000421592 0
-0.000212004 -0.000422951 0
-0.000206351 -0.00095763 0
-0.000216278 -0.000960713 0
-0.000212004 -0.000422951 0
-0.000222606 -0.000423997 0
-0.000216278 -0.000960713 0
-0.000224463 -0.000963977 0
-0.000222606 -0.000423997 0
-0.000230143 -0.000424479 0
-0.000224463 -0.000963977 0
-0.000229784 -0.000966557 0
-0.000230143 -0.000424479 0
-0.000236417 -0.000424793 0
-0.000229784 -0.000966557 0
-0.000234642 -0.000969347 0
-0.000236417 -0.000424793 0
-0.000239361 -0.000425013 0
-0.000234642 -0.000969347 0
-0.000237678 -0.000972201 0
-0.000239361 -0.000425013 0
-0.000239909 -0.000425214 0
-0.000237678 -0.000972201 0
-0.000241563 -0.000975716 0
-0.000239909 -0.000425214 0
-0.000240277 -0.000426015 0
-0.000241563 -0.000975716 0
-0.000243814 -0.000978752 0
-0.000240277 -0.000426015 0
-0.00024176 -0.000426933 0
-0.000243814 -0.000978752 0
-0.000244637 -0.000982326 0
-0.00024176 -0.000426933 0
-0.000241726 -0.000427945 0
-0.000244637 -0.000982326 0
-0.000243732 -0.000986058 0
-0.000241726 -0.000427945 0
-0.0002427 -0.000428748 0
-0.000243732 -0.000986058 0
-0.00024308 -0.000989756 0
-0.0002427 -0.000428748 0
-0.000240412 -0.000429105 0
-0.00024308 -0.000989756 0
-0.000240317 -0.000993506 0
-0.000240412 -0.000429105 0
-0.000237014 -0.000429628 0
-0.000240317 -0.000993506 0
-0.000236944 -0.000996597 0
-0.000237014 -0.000429628 0
-0.000229965 -0.000429721 0
-0.000236944 -0.000996597 0
-0.000230167 -0.000998876 0
-0.000229965 -0.000429721 0
-0.000222954 -0.000429701 0
-0.000230167 -0.000998876 0
-0.000223948 -0.000999867 0
0.154761 -0.148622 0
0.177188 -0.0913351 0
0.251384 -0.245073 0
0.271069 -0.0962691 0
0.154761 -0.148622 0
0.109227 -0.108606 0
0.177188 -0.0913351 0
0.125608 -0.0772076 0
0.109227 -0.108606 0
0.0844002 -0.0838613 0
0.125608 -0.0772076 0
0.0951506 -0.0651193 0
0.0844002 -0.0838613 0
0.0679611 -0.0680035 0
0.0951506 -0.0651193 0
0.0752644 -0.0549762 0
0.0679611 -0.0680035 0
0.0568274 -0.0568977 0
0.0752644 -0.0549762 0
0.0618274 -0.0478485 0
0.0486148 -0.0488531 0
0.0521797 -0.0419502 0
0.0568274 -0.0568977 0
0.0618274 -0.0478485 0
0.0425066 -0.0427736 0
0.0450292 -0.0375453 0
0.0486148 -0.0488531 0
0.0521797 -0.0419502 0
0.0425066 -0.0427736 0
0.037648 -0.0379843 0
0.0450292 -0.0375453 0
0.039479 -0.0337993 0
0.037648 -0.0379843 0
0.033722 -0.0340795 0
0.039479 -0.0337993 0
0.0350221 -0.0307232 0
0.033722 -0.0340795 0
0.0303485 -0.0307323 0
0.0350221 -0.0307232 0
0.0312671 -0.0279609 0
0.0303485 -0.0307323 0
0.0273958 -0.0277906 0
0.0312671 -0.0279609 0
0.0280035 -0.0254895 0
0.0273958 -0.0277906 0
0.0246817 -0.0250871 0
0.0280035 -0.0254895 0
0.0250491 -0.0231417 0
0.0246817 -0.0250871 0
0.0221727 -0.0225846 0
0.0250491 -0.0231417 0
0.0223463 -0.0209368 0
0.0221727 -0.0225846 0
0.0197854 -0.020203 0
0.0223463 -0.0209368 0
0.0197921 -0.0188025 0
0.0175531 -0.0179671 0
0.0174212 -0.0167795 0
0.0197854 -0.020203 0
0.0197921 -0.0188025 0
0.0154225 -0.0158334 0
0.0151377 -0.0148243 0
0.0175531 -0.0179671 0
0.0174212 -0.0167795 0
0.0154225 -0.0158334 0
0.0134644 -0.013886 0
0.0151377 -0.0148243 0
0.0130676 -0.0130005 0
0.011609 -0.012049 0
0.0111243 -0.01128 0
0.0134644 -0.013886 0
0.0130676 -0.0130005 0
0.00995829 -0.0104306 0
0.00945174 -0.00974001 0
0.011609 -0.012049 0
0.0111243 -0.01128 0
0.00995829 -0.0104306 0
0.00840993 -0.00888599 0
0.00945174 -0.00974001 0
0.0078623 -0.00833964 0
0.00714945 -0.00761625 0
0.00653242 -0.00716437 0
0.00840993 -0.00888599 0
0.0078623 -0.00833964 0
0.00714945 -0.00761625 0
0.00596171 -0.00643625 0
0.00653242 -0.00716437 0
0.00529068 -0.00602095 0
0.00596171 -0.00643625 0
0.00500141 -0.00548733 0
0.00529068 -0.00602095 0
0.00437403 -0.00510828 0
0.00500141 -0.00548733 0
0.0039722 -0.00446572 0
0.00437403 -0.00510828 0
0.00343513 -0.00402996 0
0.0039722 -0.00446572 0
0.0029883 -0.0034177 0
0.00343513 -0.00402996 0
0.00289 -0.00339987 0
0.0029883 -0.0034177 0
0.00198909 -0.00233153 0
0.00289 -0.00339987 0
0.00205035 -0.00205529 0
0.00198909 -0.00233153 0
0.000905923 -0.000802212 0
0.00205035 -0.00205529 0
0.00161291 -0.0017899 0
0.000905923 -0.000802212 0
0.00172219 -0.000276691 0
0.00161291 -0.0017899 0
0.00169114 -0.00136509 0
0.00172219 -0.000276691 0
0.00141813 -0.000398905 0
0.00169114 -0.00136509 0
0.00105418 -0.00124412 0
0.00141813 -0.000398905 0
0.00103926 -0.00046851 0
0.00105418 -0.00124412 0
0.000971887 -0.00110571 0
0.00103926 -0.00046851 0
0.000342175 -0.000413683 0
0.000971887 -0.00110571 0
0.000409034 -0.00115225 0
-0.000230167 -0.000998876 0
-0.000223948 -0.000999867 0
-0.000231118 -0.00074444 0
-0.000225669 -0.000748153 0
-0.000231118 -0.00074444 0
-0.000225669 -0.000748153 0
-0.000235923 -0.00120876 0
-0.000231178 -0.00121189 0
-0.000235923 -0.00120876 0
-0.000231178 -0.00121189 0
-0.000243895 -0.00105102 0
-0.000238525 -0.00105562 0
-0.000243895 -0.00105102 0
-0.000238525 -0.00105562 0
-0.000253403 -0.00142911 0
-0.000250073 -0.00143485 0
-0.000253403 -0.00142911 0
-0.000250073 -0.00143485 0
-0.000266221 -0.0013401 0
-0.000262109 -0.0013464 0
-0.000266221 -0.0013401 0
-0.000262109 -0.0013464 0
-0.00027934 -0.0016447 0
-0.000276706 -0.00165234 0
-0.000296111 -0.00160168 0
-0.00027934 -0.0016447 0
-0.000293197 -0.00161018 0
-0.000276706 -0.00165234 0
-0.000296111 -0.00160168 0
-0.000293197 -0.00161018 0
-0.000314562 -0.00184009 0
-0.000312497 -0.00184963 0
-0.000314562 -0.00184009 0
-0.000312497 -0.00184963 0
-0.00033674 -0.00182379 0
-0.000335088 -0.00183489 0
-0.00033674 -0.00182379 0
-0.000335088 -0.00183489 0
-0.000362891 -0.00199952 0
-0.00036269 -0.00201183 0
-0.000362891 -0.00199952 0
-0.00036269 -0.00201183 0
-0.000393696 -0.00199523 0
-0.000395484 -0.00200976 0
-0.000393696 -0.00199523 0
-0.000395484 -0.00200976 0
-0.000431186 -0.00210904 0
-0.000438264 -0.00212575 0
-0.000431186 -0.00210904 0
-0.000438264 -0.00212575 0
-0.000474374 -0.00210471 0
-0.000489097 -0.00212372 0
-0.000474374 -0.00210471 0
-0.000489097 -0.00212372 0
-0.000524198 -0.00215288 0
-0.000551872 -0.00217419 0
-0.000524198 -0.00215288 0
-0.000551872 -0.00217419 0
-0.000575812 -0.00213679 0
-0.000620889 -0.0021585 0
-0.000575812 -0.00213679 0
-0.000620889 -0.0021585 0
-0.000624402 -0.00211102 0
-0.000690723 -0.00213086 0
-0.000624402 -0.00211102 0
-0.000690723 -0.00213086 0
-0.000658477 -0.00207695 0
-0.000745692 -0.00209011 0
-0.000658477 -0.00207695 0
-0.000745692 -0.00209011 0
-0.000668099 -0.00197771 0
-0.000768731 -0.00198003 0
-0.000668099 -0.00197771 0
-0.000768731 -0.00198003 0
-0.000645558 -0.0019484 0
-0.000744722 -0.00193702 0
-0.000645558 -0.0019484 0
-0.000744722 -0.00193702 0
-0.000593011 -0.0018045 0
-0.000676152 -0.00178372 0
-0.000593011 -0.0018045 0
-0.000676152 -0.00178372 0
-0.000521337 -0.0018294 0
-0.000581868 -0.00180317 0
-0.000521337 -0.0018294 0
-0.000581868 -0.00180317 0
-0.000441704 -0.0016599 0
-0.000479791 -0.00163437 0
-0.000441704 -0.0016599 0
-0.000479791 -0.00163437 0
-0.000368829 -0.00176488 0
-0.000388127 -0.00174125 0
-0.000368829 -0.00176488 0
-0.000388127 -0.00174125 0
-0.000300635 -0.00154348 0
-0.000306718 -0.00152612 0
-0.000300635 -0.00154348 0
-0.000306718 -0.00152612 0
-0.000253552 -0.00173441 0
-0.000253111 -0.00171914 0
-0.000253552 -0.00173441 0
-0.000253111 -0.00171914 0
-0.00020564 -0.00141358 0
-0.000199046 -0.00140162 0
-0.00020564 -0.00141358 0
-0.000199046 -0.00140162 0
-0.000173943 -0.0017238 0
-0.000166285 -0.00171419 0
-0.000173943 -0.0017238 0
-0.000166285 -0.00171419 0
-0.000139569 -0.00124154 0
-0.000127949 -0.00123579 0
-0.000139569 -0.00124154 0
-0.000127949 -0.00123579 0
-0.000130353 -0.0017301 0
-0.000118576 -0.00172837 0
-0.000130353 -0.0017301 0
-0.000118576 -0.00172837 0
-0.000122205 -0.000999595 0
-0.000109911 -0.000997888 0
-0.000122205 -0.000999595 0
-0.000109911 -0.000997888 0
-0.000124163 -0.00176624 0
-0.000110433 -0.00176675 0
0.177188 -0.0913351 0
0.16646 -0.02811 0
0.271069 -0.0962691 0
0.219404 0.00382269 0
0.177188 -0.0913351 0
0.125608 -0.0772076 0
0.16646 -0.02811 0
0.125102 -0.0377015 0
0.125608 -0.0772076 0
0.0951506 -0.0651193 0
0.125102 -0.0377015 0
0.0966852 -0.0391059 0
0.0951506 -0.0651193 0
0.0752644 -0.0549762 0
0.0966852 -0.0391059 0
0.0777452 -0.0374634 0
0.0752644 -0.0549762 0
0.0618274 -0.0478485 0
0.0777452 -0.0374634 0
0.0639384 -0.0349122 0
0.0521797 -0.0419502 0
0.0541993 -0.0324186 0
0.0618274 -0.0478485 0
0.0639384 -0.0349122 0
0.0450292 -0.0375453 0
0.0466139 -0.0300073 0
0.0521797 -0.0419502 0
0.0541993 -0.0324186 0
0.0450292 -0.0375453 0
0.039479 -0.0337993 0
0.0466139 -0.0300073 0
0.0408406 -0.0278427 0
0.039479 -0.0337993 0
0.0350221 -0.0307232 0
0.0408406 -0.0278427 0
0.0360587 -0.0257774 0
0.0350221 -0.0307232 0
0.0312671 -0.0279609 0
0.0360587 -0.0257774 0
0.0321049 -0.0238496 0
0.0312671 -0.0279609 0
0.0280035 -0.0254895 0
0.0321049 -0.0238496 0
0.0286276 -0.0219481 0
0.0280035 -0.0254895 0
0.0250491 -0.0231417 0
0.0286276 -0.0219481 0
0.0255214 -0.0200934 0
0.0250491 -0.0231417 0
0.0223463 -0.0209368 0
0.0255214 -0.0200934 0
0.0226417 -0.0182627 0
0.0223463 -0.0209368 0
0.0197921 -0.0188025 0
0.0226417 -0.0182627 0
0.0199664 -0.0164556 0
0.0174212 -0.0167795 0
0.017475 -0.0146669 0
0.0197921 -0.0188025 0
0.0199664 -0.0164556 0
0.0151377 -0.0148243 0
0.0151466 -0.0129398 0
0.0174212 -0.0167795 0
0.017475 -0.0146669 0
0.0151377 -0.0148243 0
0.0130676 -0.0130005 0
0.0151466 -0.0129398 0
0.0130057 -0.0113082 0
0.0111243 -0.01128 0
0.0109805 -0.00982286 0
0.0130676 -0.0130005 0
0.0130057 -0.0113082 0
0.00945174 -0.00974001 0
0.00920555 -0.00844755 0
0.0111243 -0.01128 0
0.0109805 -0.00982286 0
0.00945174 -0.00974001 0
0.0078623 -0.00833964 0
0.00920555 -0.00844755 0
0.00751765 -0.00712969 0
0.00653242 -0.00716437 0
0.00615465 -0.00597719 0
0.0078623 -0.00833964 0
0.00751765 -0.00712969 0
0.00653242 -0.00716437 0
0.00529068 -0.00602095 0
0.00615465 -0.00597719 0
0.00485967 -0.00506914 0
0.00529068 -0.00602095 0
0.00437403 -0.00510828 0
0.00485967 -0.00506914 0
0.00406061 -0.00417215 0
0.00437403 -0.00510828 0
0.00343513 -0.00402996 0
0.00406061 -0.00417215 0
0.0029948 -0.00341152 0
0.00343513 -0.00402996 0
0.00289 -0.00339987 0
0.0029948 -0.00341152 0
0.00260818 -0.00265008 0
0.00201327 -0.0011622 0
0.00169114 -0.00136509 0
0.00129416 -0.00146706 0
0.00105418 -0.00124412 0
0.00129416 -0.00146706 0
0.00105418 -0.00124412 0
0.000929388 -0.00138604 0
0.000971887 -0.00110571 0
0.000929388 -0.00138604 0
0.000971887 -0.00110571 0
0.000255962 -0.00105891 0
0.000409034 -0.00115225 0
0.00103479 -0.00207613 0
0.000929388 -0.00138604 0
0.000446024 -0.00170695 0
0.000255962 -0.00105891 0
0.001189 -0.00175621 0
0.00103479 -0.00207613 0