# vtk DataFile Version 3.0
#This file was generated by the deal.II library on 2016/12/20 at 10:56:57
ASCII
DATASET UNSTRUCTURED_GRID

POINTS 7360 double
-1 0.5 0
-0.978723 0.478723 0
-0.970149 0.5 0
-0.964976 0.485465 0
0.12 -0.5 0
0.15 -0.5 0
0.119014 -0.4708 0
0.15 -0.471429 0
0.11755 -0.441479 0
0.119014 -0.4708 0
0.15 -0.442857 0
0.15 -0.471429 0
0.117242 -0.412206 0
0.11755 -0.441479 0
0.15 -0.414286 0
0.15 -0.442857 0
0.118129 -0.383064 0
0.117242 -0.412206 0
0.15 -0.385714 0
0.15 -0.414286 0
0.12021 -0.354337 0
0.118129 -0.383064 0
0.15 -0.357143 0
0.15 -0.385714 0
0.121793 -0.32584 0
0.12021 -0.354337 0
0.15 -0.328571 0
0.15 -0.357143 0
0.122717 -0.296869 0
0.121793 -0.32584 0
0.15 -0.3 0
0.15 -0.328571 0
0.123759 -0.266752 0
0.122717 -0.296869 0
0.153091 -0.267708 0
0.15 -0.3 0
0.18456 -0.26795 0
0.153091 -0.267708 0
0.183333 -0.3 0
0.15 -0.3 0
0.216606 -0.268111 0
0.18456 -0.26795 0
0.216667 -0.3 0
0.183333 -0.3 0
0.24835 -0.26841 0
0.216606 -0.268111 0
0.25 -0.3 0
0.216667 -0.3 0
0.278782 -0.268564 0
0.24835 -0.26841 0
0.279437 -0.298917 0
0.25 -0.3 0
0.279638 -0.328111 0
0.279437 -0.298917 0
0.25 -0.328571 0
0.25 -0.3 0
0.27971 -0.356801 0
0.279638 -0.328111 0
0.25 -0.357143 0
0.25 -0.328571 0
0.279677 -0.385395 0
0.27971 -0.356801 0
0.25 -0.385714 0
0.25 -0.357143 0
0.279641 -0.413938 0
0.279677 -0.385395 0
0.25 -0.414286 0
0.25 -0.385714 0
0.279666 -0.442534 0
0.279641 -0.413938 0
0.25 -0.442857 0
0.25 -0.414286 0
0.279811 -0.471266 0
0.279666 -0.442534 0
0.25 -0.471429 0
0.25 -0.442857 0
0.28 -0.5 0
0.279811 -0.471266 0
0.25 -0.5 0
0.25 -0.471429 0
0.970149 0.5 0
0.970096 0.46978 0
1 0.5 0
1 0.469697 0
0.940299 0.5 0
0.940231 0.46984 0
0.970149 0.5 0
0.970096 0.46978 0
0.910448 0.5 0
0.910371 0.469856 0
0.940299 0.5 0
0.940231 0.46984 0
0.880597 0.5 0
0.880527 0.469909 0
0.910448 0.5 0
0.910371 0.469856 0
0.850746 0.5 0
0.850684 0.469926 0
0.880597 0.5 0
0.880527 0.469909 0
0.820896 0.5 0
0.820842 0.469978 0
0.850746 0.5 0
0.850684 0.469926 0
0.791045 0.5 0
0.791001 0.470016 0
0.820896 0.5 0
0.820842 0.469978 0
0.761194 0.5 0
0.761159 0.470055 0
0.791045 0.5 0
0.791001 0.470016 0
0.731343 0.5 0
0.731316 0.470091 0
0.761194 0.5 0
0.761159 0.470055 0
0.701493 0.5 0
0.701472 0.470118 0
0.731343 0.5 0
0.731316 0.470091 0
0.671642 0.5 0
0.671627 0.470134 0
0.701493 0.5 0
0.701472 0.470118 0
0.641791 0.5 0
0.64178 0.470142 0
0.671642 0.5 0
0.671627 0.470134 0
0.641791 0.5 0
0.61194 0.5 0
0.64178 0.470142 0
0.611934 0.470065 0
0.58209 0.5 0
0.582089 0.470002 0
0.61194 0.5 0
0.611934 0.470065 0
0.552239 0.5 0
0.552248 0.469853 0
0.58209 0.5 0
0.582089 0.470002 0
0.522388 0.5 0
0.522413 0.469718 0
0.552239 0.5 0
0.552248 0.469853 0
0.492537 0.5 0
0.492577 0.469656 0
0.522388 0.5 0
0.522413 0.469718 0
0.462687 0.5 0
0.462743 0.469571 0
0.492537 0.5 0
0.492577 0.469656 0
0.432836 0.5 0
0.432895 0.46963 0
0.462687 0.5 0
0.462743 0.469571 0
0.402985 0.5 0
0.403046 0.469669 0
0.432836 0.5 0
0.432895 0.46963 0
0.373134 0.5 0
0.373191 0.469745 0
0.402985 0.5 0
0.403046 0.469669 0
0.343284 0.5 0
0.343335 0.469723 0
0.373134 0.5 0
0.373191 0.469745 0
0.313433 0.5 0
0.313478 0.469741 0
0.343284 0.5 0
0.343335 0.469723 0
0.283582 0.5 0
0.283622 0.469783 0
0.313433 0.5 0
0.313478 0.469741 0
0.253731 0.5 0
0.253768 0.469742 0
0.283582 0.5 0
0.283622 0.469783 0
0.223881 0.5 0
0.223918 0.469737 0
0.253731 0.5 0
0.253768 0.469742 0
0.19403 0.5 0
0.194064 0.46981 0
0.223881 0.5 0
0.223918 0.469737 0
0.164179 0.5 0
0.16421 0.469881 0
0.19403 0.5 0
0.194064 0.46981 0
0.134328 0.5 0
0.134355 0.46994 0
0.164179 0.5 0
0.16421 0.469881 0
0.104478 0.5 0
0.1045 0.469997 0
0.134328 0.5 0
0.134355 0.46994 0
0.074627 0.5 0
0.074645 0.470051 0
0.104478 0.5 0
0.1045 0.469997 0
0.044776 0.5 0
0.04479 0.470093 0
0.074627 0.5 0
0.074645 0.470051 0
0.014925 0.5 0
0.014935 0.47012 0
0.044776 0.5 0
0.04479 0.470093 0
-0.014925 0.5 0
-0.014918 0.470135 0
0.014925 0.5 0
0.014935 0.47012 0
-0.044776 0.5 0
-0.044771 0.470143 0
-0.014925 0.5 0
-0.014918 0.470135 0
-0.074627 0.5 0
-0.074623 0.470146 0
-0.044776 0.5 0
-0.044771 0.470143 0
-0.104478 0.5 0
-0.104496 0.469979 0
-0.074627 0.5 0
-0.074623 0.470146 0
-0.134328 0.5 0
-0.134359 0.469935 0
-0.104478 0.5 0
-0.104496 0.469979 0
-0.164179 0.5 0
-0.164225 0.469839 0
-0.134328 0.5 0
-0.134359 0.469935 0
-0.164179 0.5 0
-0.19403 0.5 0
-0.164225 0.469839 0
-0.194083 0.469797 0
-0.223881 0.5 0
-0.22394 0.469753 0
-0.19403 0.5 0
-0.194083 0.469797 0
-0.253731 0.5 0
-0.253798 0.469819 0
-0.223881 0.5 0
-0.22394 0.469753 0
-0.283582 0.5 0
-0.283647 0.470019 0
-0.253731 0.5 0
-0.253798 0.469819 0
-0.313433 0.5 0
-0.313491 0.470151 0
-0.283582 0.5 0
-0.283647 0.470019 0
-0.343284 0.5 0
-0.343348 0.470381 0
-0.313433 0.5 0
-0.313491 0.470151 0
-0.343284 0.5 0
-0.373134 0.5 0
-0.343348 0.470381 0
-0.373195 0.470395 0
-0.373134 0.5 0
-0.402985 0.5 0
-0.373195 0.470395 0
-0.403049 0.470404 0
-0.432836 0.5 0
-0.432937 0.470297 0
-0.402985 0.5 0
-0.403049 0.470404 0
-0.462687 0.5 0
-0.462848 0.469995 0
-0.432836 0.5 0
-0.432937 0.470297 0
-0.492537 0.5 0
-0.492807 0.469765 0
-0.462687 0.5 0
-0.462848 0.469995 0
-0.522388 0.5 0
-0.52276 0.46958 0
-0.492537 0.5 0
-0.492807 0.469765 0
-0.552239 0.5 0
-0.55273 0.469652 0
-0.522388 0.5 0
-0.52276 0.46958 0
-0.58209 0.5 0
-0.582662 0.469731 0
-0.552239 0.5 0
-0.55273 0.469652 0
-0.61194 0.5 0
-0.612594 0.469999 0
-0.58209 0.5 0
-0.582662 0.469731 0
-0.641791 0.5 0
-0.642647 0.470419 0
-0.61194 0.5 0
-0.612594 0.469999 0
-0.671642 0.5 0
-0.672638 0.470543 0
-0.641791 0.5 0
-0.642647 0.470419 0
-0.701493 0.5 0
-0.702968 0.4698 0
-0.671642 0.5 0
-0.672638 0.470543 0
-0.701493 0.5 0
-0.731343 0.5 0
-0.702968 0.4698 0
-0.733232 0.468149 0
-0.820896 0.5 0
-0.822797 0.47207 0
-0.791045 0.5 0
-0.795702 0.469563 0
0.31 -0.5 0
0.309694 -0.471123 0
0.28 -0.5 0
0.279811 -0.471266 0
0.31 -0.5 0
0.34 -0.5 0
0.309694 -0.471123 0
0.339686 -0.471033 0
0.37 -0.5 0
0.369721 -0.471055 0
0.34 -0.5 0
0.339686 -0.471033 0
0.37 -0.5 0
0.4 -0.5 0
0.369721 -0.471055 0
0.399756 -0.470957 0
0.4 -0.5 0
0.43 -0.5 0
0.399756 -0.470957 0
0.429805 -0.470822 0
0.43 -0.5 0
0.46 -0.5 0
0.429805 -0.470822 0
0.459835 -0.470712 0
0.46 -0.5 0
0.49 -0.5 0
0.459835 -0.470712 0
0.489873 -0.470554 0
0.49 -0.5 0
0.52 -0.5 0
0.489873 -0.470554 0
0.519906 -0.470379 0
0.52 -0.5 0
0.55 -0.5 0
0.519906 -0.470379 0
0.54993 -0.470248 0
0.55 -0.5 0
0.58 -0.5 0
0.54993 -0.470248 0
0.579948 -0.470155 0
0.58 -0.5 0
0.61 -0.5 0
0.579948 -0.470155 0
0.609962 -0.470091 0
0.61 -0.5 0
0.64 -0.5 0
0.609962 -0.470091 0
0.639972 -0.47005 0
0.64 -0.5 0
0.67 -0.5 0
0.639972 -0.47005 0
0.66998 -0.470026 0
0.67 -0.5 0
0.7 -0.5 0
0.66998 -0.470026 0
0.699986 -0.470013 0
0.7 -0.5 0
0.73 -0.5 0
0.699986 -0.470013 0
0.72999 -0.470006 0
0.73 -0.5 0
0.76 -0.5 0
0.72999 -0.470006 0
0.759994 -0.470003 0
0.76 -0.5 0
0.79 -0.5 0
0.759994 -0.470003 0
0.78998 -0.469916 0
0.79 -0.5 0
0.82 -0.5 0
0.78998 -0.469916 0
0.819956 -0.469877 0
0.82 -0.5 0
0.85 -0.5 0
0.819956 -0.469877 0
0.849929 -0.469833 0
0.85 -0.5 0
0.88 -0.5 0
0.849929 -0.469833 0
0.879924 -0.469805 0
0.88 -0.5 0
0.91 -0.5 0
0.879924 -0.469805 0
0.909913 -0.469792 0
0.91 -0.5 0
0.94 -0.5 0
0.909913 -0.469792 0
0.939922 -0.469775 0
0.94 -0.5 0
0.97 -0.5 0
0.939922 -0.469775 0
0.969956 -0.46974 0
0.97 -0.5 0
1 -0.5 0
0.969956 -0.46974 0
1 -0.469697 0
-0.617021 0.117021 0
-0.595745 0.095745 0
-0.595665 0.139192 0
-0.574431 0.117764 0
-0.595745 0.095745 0
-0.574468 0.074468 0
-0.574431 0.117764 0
-0.553204 0.096309 0
-0.553191 0.053191 0
-0.53184 0.075023 0
-0.574468 0.074468 0
-0.553204 0.096309 0
-0.553191 0.053191 0
-0.531915 0.031915 0
-0.53184 0.075023 0
-0.510492 0.053733 0
-0.531915 0.031915 0
-0.510638 0.010638 0
-0.510492 0.053733 0
-0.489127 0.032461 0
-0.510638 0.010638 0
-0.489362 -0.010638 0
-0.489127 0.032461 0
-0.467791 0.011178 0
-0.489362 -0.010638 0
-0.468085 -0.031915 0
-0.467791 0.011178 0
-0.446536 -0.010172 0
-0.446809 -0.053191 0
-0.42524 -0.031466 0
-0.468085 -0.031915 0
-0.446536 -0.010172 0
-0.425532 -0.074468 0
-0.404012 -0.052824 0
-0.446809 -0.053191 0
-0.42524 -0.031466 0
-0.425532 -0.074468 0
-0.404255 -0.095745 0
-0.404012 -0.052824 0
-0.382783 -0.074175 0
-0.404255 -0.095745 0
-0.382979 -0.117021 0
-0.382783 -0.074175 0
-0.361545 -0.095511 0
-0.382979 -0.117021 0
-0.361702 -0.138298 0
-0.361545 -0.095511 0
-0.340288 -0.116831 0
-0.361702 -0.138298 0
-0.340426 -0.159574 0
-0.340288 -0.116831 0
-0.319034 -0.138159 0
-0.340426 -0.159574 0
-0.319149 -0.180851 0
-0.319034 -0.138159 0
-0.297766 -0.159484 0
-0.319149 -0.180851 0
-0.297872 -0.202128 0
-0.297766 -0.159484 0
-0.276489 -0.180797 0
-0.297872 -0.202128 0
-0.276596 -0.223404 0
-0.276489 -0.180797 0
-0.255087 -0.202105 0
-0.255319 -0.244681 0
-0.233674 -0.223466 0
-0.276596 -0.223404 0
-0.255087 -0.202105 0
-0.234043 -0.265957 0
-0.212119 -0.244916 0
-0.255319 -0.244681 0
-0.233674 -0.223466 0
-0.234043 -0.265957 0
-0.212766 -0.287234 0
-0.212119 -0.244916 0
-0.190657 -0.266392 0
-0.191489 -0.308511 0
-0.169261 -0.287934 0
-0.212766 -0.287234 0
-0.190657 -0.266392 0
-0.170213 -0.329787 0
-0.147854 -0.309624 0
-0.191489 -0.308511 0
-0.169261 -0.287934 0
-0.170213 -0.329787 0
-0.148936 -0.351064 0
-0.147854 -0.309624 0
-0.126431 -0.331364 0
-0.12766 -0.37234 0
-0.105256 -0.353368 0
-0.148936 -0.351064 0
-0.126431 -0.331364 0
-0.12766 -0.37234 0
-0.106383 -0.393617 0
-0.105256 -0.353368 0
-0.083924 -0.375263 0
-0.106383 -0.393617 0
-0.085106 -0.414894 0
-0.083924 -0.375263 0
-0.062097 -0.396824 0
-0.085106 -0.414894 0
-0.06383 -0.43617 0
-0.062097 -0.396824 0
-0.040132 -0.418076 0
-0.06383 -0.43617 0
-0.042553 -0.457447 0
-0.040132 -0.418076 0
-0.019646 -0.439891 0
-0.042553 -0.457447 0
-0.021277 -0.478723 0
-0.019646 -0.439891 0
-0.002475 -0.461393 0
-0.021277 -0.478723 0
0 -0.5 0
-0.002475 -0.461393 0
0.009599 -0.478226 0
0 -0.5 0
0.03 -0.5 0
0.009599 -0.478226 0
0.029922 -0.474701 0
0.03 -0.5 0
0.06 -0.5 0
0.029922 -0.474701 0
0.057397 -0.471689 0
0.06 -0.5 0
0.09 -0.5 0
0.057397 -0.471689 0
[...]
POINT_DATA 7360
VECTORS momentum double
-0.0012395 0.000334896 0
-0.0094686 0.00850053 0
-0.0093259 -2.02372e-05 0
-0.0132762 0.00599278 0
2.99506e-05 -0.000405997 0
7.68068e-05 -0.000412126 0
7.96505e-05 -0.000941312 0
6.59974e-05 -0.000889304 0
-0.000112651 -0.000634855 0
7.96505e-05 -0.000941312 0
8.07034e-05 -0.000670422 0
6.59974e-05 -0.000889304 0
2.82471e-05 -0.00111953 0
-0.000112651 -0.000634855 0
-2.79043e-07 -0.00120428 0
8.07034e-05 -0.000670422 0
0.000130132 -0.000878277 0
2.82471e-05 -0.00111953 0
-4.25315e-06 -0.000997937 0
-2.79043e-07 -0.00120428 0
0.000155767 -0.00125864 0
0.000130132 -0.000878277 0
-4.20754e-05 -0.00121888 0
-4.25315e-06 -0.000997937 0
0.000367053 -0.00103023 0
0.000155767 -0.00125864 0
2.38193e-05 -0.000998531 0
-4.20754e-05 -0.00121888 0
0.000156316 -0.00161491 0
0.000367053 -0.00103023 0
-1.08686e-05 -0.000692806 0
2.38193e-05 -0.000998531 0
-0.00026836 -0.00117354 0
0.000156316 -0.00161491 0
-0.000583744 -0.00119997 0
-1.08686e-05 -0.000692806 0
-0.000208292 -0.00148952 0
-0.000583744 -0.00119997 0
4.89051e-05 -0.000444687 0
-1.08686e-05 -0.000692806 0
-9.5028e-06 -0.00150238 0
-0.000208292 -0.00148952 0
-0.000241044 -0.000448915 0
4.89051e-05 -0.000444687 0
0.000305528 -0.00111831 0
-9.5028e-06 -0.00150238 0
-3.46937e-05 -0.000663874 0
-0.000241044 -0.000448915 0
0.000126885 -0.000896253 0
0.000305528 -0.00111831 0
-0.00010176 -0.00130625 0
-3.46937e-05 -0.000663874 0
-9.41171e-05 -0.000740504 0
-0.00010176 -0.00130625 0
-4.70957e-05 -0.00072984 0
-3.46937e-05 -0.000663874 0
-6.75789e-06 -0.00099454 0
-9.41171e-05 -0.000740504 0
7.85413e-06 -0.00094132 0
-4.70957e-05 -0.00072984 0
-3.32384e-06 -0.000593598 0
-6.75789e-06 -0.00099454 0
-9.21987e-06 -0.000619501 0
7.85413e-06 -0.00094132 0
-1.30133e-05 -0.000904758 0
-3.32384e-06 -0.000593598 0
2.61541e-06 -0.000889645 0
-9.21987e-06 -0.000619501 0
-6.82615e-06 -0.000483176 0
-1.30133e-05 -0.000904758 0
-2.6915e-06 -0.00048963 0
2.61541e-06 -0.000889645 0
-2.25224e-05 -0.000874376 0
-6.82615e-06 -0.000483176 0
-5.44409e-07 -0.000869479 0
-2.6915e-06 -0.00048963 0
-9.19035e-07 -0.000387148 0
-2.25224e-05 -0.000874376 0
1.66585e-07 -0.000387733 0
-5.44409e-07 -0.000869479 0
-7.34707e-05 -0.000654831 0
-6.36561e-05 -0.00171131 0
-6.83703e-05 -0.000655001 0
-5.56985e-05 -0.001711 0
-7.55692e-05 -0.000655384 0
-6.89783e-05 -0.00171401 0
-7.34707e-05 -0.000654831 0
-6.36561e-05 -0.00171131 0
-7.45427e-05 -0.000655001 0
-6.75628e-05 -0.00171654 0
-7.55692e-05 -0.000655384 0
-6.89783e-05 -0.00171401 0
-7.19543e-05 -0.000654104 0
-6.53782e-05 -0.00171841 0
-7.45427e-05 -0.000655001 0
-6.75628e-05 -0.00171654 0
-6.6571e-05 -0.000653397 0
-5.89796e-05 -0.00172046 0
-7.19543e-05 -0.000654104 0
-6.53782e-05 -0.00171841 0
-5.93606e-05 -0.000651953 0
-5.12254e-05 -0.00172229 0
-6.6571e-05 -0.000653397 0
-5.89796e-05 -0.00172046 0
-4.84119e-05 -0.00065118 0
-4.06044e-05 -0.00172425 0
-5.93606e-05 -0.000651953 0
-5.12254e-05 -0.00172229 0
-3.61162e-05 -0.000649581 0
-2.7978e-05 -0.00172695 0
-4.84119e-05 -0.00065118 0
-4.06044e-05 -0.00172425 0
-1.99067e-05 -0.000648307 0
-1.44977e-05 -0.00172986 0
-3.61162e-05 -0.000649581 0
-2.7978e-05 -0.00172695 0
-2.60537e-06 -0.000647485 0
1.06212e-06 -0.00173345 0
-1.99067e-05 -0.000648307 0
-1.44977e-05 -0.00172986 0
1.78723e-05 -0.000646217 0
1.71725e-05 -0.00173687 0
-2.60537e-06 -0.000647485 0
1.06212e-06 -0.00173345 0
3.94846e-05 -0.00064546 0
2.95667e-05 -0.00174163 0
1.78723e-05 -0.000646217 0
1.71725e-05 -0.00173687 0
3.94846e-05 -0.00064546 0
5.77112e-05 -0.000646038 0
2.95667e-05 -0.00174163 0
4.24672e-05 -0.00174708 0
7.42936e-05 -0.000646373 0
5.14929e-05 -0.00175445 0
5.77112e-05 -0.000646038 0
4.24672e-05 -0.00174708 0
8.55251e-05 -0.000649066 0
5.84724e-05 -0.00176089 0
7.42936e-05 -0.000646373 0
5.14929e-05 -0.00175445 0
8.73219e-05 -0.000651737 0
6.73939e-05 -0.00176491 0
8.55251e-05 -0.000649066 0
5.84724e-05 -0.00176089 0
8.88887e-05 -0.000652963 0
7.29721e-05 -0.00176553 0
8.73219e-05 -0.000651737 0
6.73939e-05 -0.00176491 0
7.91057e-05 -0.000654979 0
7.18107e-05 -0.00176465 0
8.88887e-05 -0.000652963 0
7.29721e-05 -0.00176553 0
6.06083e-05 -0.000655604 0
6.49435e-05 -0.00176298 0
7.91057e-05 -0.000654979 0
7.18107e-05 -0.00176465 0
4.03977e-05 -0.000654715 0
5.07601e-05 -0.00176125 0
6.06083e-05 -0.000655604 0
6.49435e-05 -0.00176298 0
2.3993e-05 -0.000652978 0
3.15161e-05 -0.00176226 0
4.03977e-05 -0.000654715 0
5.07601e-05 -0.00176125 0
8.31177e-06 -0.000653103 0
1.08942e-05 -0.00176302 0
2.3993e-05 -0.000652978 0
3.15161e-05 -0.00176226 0
-7.82916e-06 -0.000652959 0
-4.18944e-06 -0.00176789 0
8.31177e-06 -0.000653103 0
1.08942e-05 -0.00176302 0
-2.09661e-05 -0.00065316 0
-2.2319e-05 -0.00177001 0
-7.82916e-06 -0.000652959 0
-4.18944e-06 -0.00176789 0
-2.68536e-05 -0.000654472 0
-3.44204e-05 -0.00176838 0
-2.09661e-05 -0.00065316 0
-2.2319e-05 -0.00177001 0
-4.0574e-05 -0.000657963 0
-4.59915e-05 -0.0017638 0
-2.68536e-05 -0.000654472 0
-3.44204e-05 -0.00176838 0
-4.97286e-05 -0.000662029 0
-4.32088e-05 -0.001756 0
-4.0574e-05 -0.000657963 0
-4.59915e-05 -0.0017638 0
-5.1337e-05 -0.000661059 0
-3.33618e-05 -0.0017507 0
-4.97286e-05 -0.000662029 0
-4.32088e-05 -0.001756 0
-3.11001e-05 -0.000658208 0
-7.07348e-06 -0.00174237 0
-5.1337e-05 -0.000661059 0
-3.33618e-05 -0.0017507 0
1.16958e-06 -0.000653804 0
3.14008e-05 -0.00173027 0
-3.11001e-05 -0.000658208 0
-7.07348e-06 -0.00174237 0
6.2111e-05 -0.00064805 0
9.753e-05 -0.00170868 0
1.16958e-06 -0.000653804 0
3.14008e-05 -0.00173027 0
0.000142023 -0.000641968 0
0.000179228 -0.0016757 0
6.2111e-05 -0.00064805 0
9.753e-05 -0.00170868 0
0.000255878 -0.000638295 0
0.000295113 -0.00161991 0
0.000142023 -0.000641968 0
0.000179228 -0.0016757 0
0.000384589 -0.000635035 0
0.000434649 -0.00154307 0
0.000255878 -0.000638295 0
0.000295113 -0.00161991 0
0.000538587 -0.000630535 0
0.000598492 -0.00142828 0
0.000384589 -0.000635035 0
0.000434649 -0.00154307 0
0.000684041 -0.000626348 0
0.000751526 -0.00127415 0
0.000538587 -0.000630535 0
0.000598492 -0.00142828 0
0.000784045 -0.000621796 0
0.000871895 -0.00105866 0
0.000684041 -0.000626348 0
0.000751526 -0.00127415 0
0.00079378 -0.000617573 0
0.000911632 -0.000782999 0
0.000784045 -0.000621796 0
0.000871895 -0.00105866 0
0.000636116 -0.000611942 0
0.000784132 -0.000425686 0
0.00079378 -0.000617573 0
0.000911632 -0.000782999 0
0.000636116 -0.000611942 0
0.000233267 -0.000605607 0
0.000784132 -0.000425686 0
0.000430359 1.33254e-05 0
-0.00059135 -0.000588848 0
-0.000338887 0.000552077 0
0.000233267 -0.000605607 0
0.000430359 1.33254e-05 0
-0.00192484 -0.00056979 0
-0.00161242 0.00121631 0
-0.00059135 -0.000588848 0
-0.000338887 0.000552077 0
-0.00413147 -0.000538557 0
-0.00378135 0.00203097 0
-0.00192484 -0.00056979 0
-0.00161242 0.00121631 0
-0.00729111 -0.000506675 0
-0.0069058 0.00304466 0
-0.00413147 -0.000538557 0
-0.00378135 0.00203097 0
-0.0120436 -0.000456146 0
-0.0116576 0.00427766 0
-0.00729111 -0.000506675 0
-0.0069058 0.00304466 0
-0.0120436 -0.000456146 0
-0.0183513 -0.000405438 0
-0.0116576 0.00427766 0
-0.0179845 0.00588977 0
-0.0183513 -0.000405438 0
-0.0273052 -0.000334948 0
-0.0179845 0.00588977 0
-0.0269813 0.00786514 0
-0.0385096 -0.000273074 0
-0.0382894 0.0104331 0
-0.0273052 -0.000334948 0
-0.0269813 0.00786514 0
-0.0537369 -0.000190402 0
-0.0536046 0.0135231 0
-0.0385096 -0.000273074 0
-0.0382894 0.0104331 0
-0.0717055 -0.000136252 0
-0.0718354 0.0173323 0
-0.0537369 -0.000190402 0
-0.0536046 0.0135231 0
-0.0950604 -5.72626e-05 0
-0.0953215 0.0212375 0
-0.0717055 -0.000136252 0
-0.0718354 0.0173323 0
-0.120815 -1.03321e-05 0
-0.121566 0.025951 0
-0.0950604 -5.72626e-05 0
-0.0953215 0.0212375 0
-0.153458 4.08321e-05 0
-0.154083 0.0306111 0
-0.120815 -1.03321e-05 0
-0.121566 0.025951 0
-0.187758 0.000133664 0
-0.189071 0.0368363 0
-0.153458 4.08321e-05 0
-0.154083 0.0306111 0
-0.231904 7.17706e-05 0
-0.231233 0.0431878 0
-0.187758 0.000133664 0
-0.189071 0.0368363 0
-0.277165 0.00118774 0
-0.277135 0.0507223 0
-0.231904 7.17706e-05 0
-0.231233 0.0431878 0
-0.331312 0.000873304 0
-0.327424 0.0453411 0
-0.277165 0.00118774 0
-0.277135 0.0507223 0
-0.331312 0.000873304 0
-0.356363 0.000340434 0
-0.327424 0.0453411 0
-0.374793 0.0246524 0
-0.273486 -0.00370951 0
-0.258564 -0.0440401 0
-0.322773 -0.0015792 0
-0.312163 -0.0701257 0
-1.72986e-05 -0.000395696 0
-4.06033e-05 -0.000872787 0
-9.19035e-07 -0.000387148 0
-2.25224e-05 -0.000874376 0
-1.72986e-05 -0.000395696 0
-4.13465e-05 -0.000400391 0
-4.06033e-05 -0.000872787 0
-5.14097e-05 -0.000874214 0
-6.1129e-05 -0.000404179 0
-6.87393e-05 -0.000873029 0
-4.13465e-05 -0.000400391 0
-5.14097e-05 -0.000874214 0
-6.1129e-05 -0.000404179 0
-7.3175e-05 -0.000406942 0
-6.87393e-05 -0.000873029 0
-8.34665e-05 -0.000873878 0
-7.3175e-05 -0.000406942 0
-8.39987e-05 -0.000410014 0
-8.34665e-05 -0.000873878 0
-9.48699e-05 -0.000875907 0
-8.39987e-05 -0.000410014 0
-9.36338e-05 -0.000411836 0
-9.48699e-05 -0.000875907 0
-0.000101732 -0.000880339 0
-9.36338e-05 -0.000411836 0
-9.946e-05 -0.000412472 0
-0.000101732 -0.000880339 0
-0.000110338 -0.000885618 0
-9.946e-05 -0.000412472 0
-0.000104912 -0.000414807 0
-0.000110338 -0.000885618 0
-0.00011852 -0.000890606 0
-0.000104912 -0.000414807 0
-0.000112225 -0.000417157 0
-0.00011852 -0.000890606 0
-0.000123408 -0.000894692 0
-0.000112225 -0.000417157 0
-0.000120183 -0.000419136 0
-0.000123408 -0.000894692 0
-0.000128039 -0.000898802 0
-0.000120183 -0.000419136 0
-0.00012735 -0.000420352 0
-0.000128039 -0.000898802 0
-0.000132603 -0.000901984 0
-0.00012735 -0.000420352 0
-0.00013518 -0.000421515 0
-0.000132603 -0.000901984 0
-0.000138104 -0.00090479 0
-0.00013518 -0.000421515 0
-0.000142478 -0.000421922 0
-0.000138104 -0.00090479 0
-0.000143049 -0.000907031 0
-0.000142478 -0.000421922 0
-0.000150486 -0.000422289 0
-0.000143049 -0.000907031 0
-0.000149684 -0.000909208 0
-0.000150486 -0.000422289 0
-0.000156698 -0.000422467 0
-0.000149684 -0.000909208 0
-0.000155901 -0.000911559 0
-0.000156698 -0.000422467 0
-0.000161371 -0.000422696 0
-0.000155901 -0.000911559 0
-0.000163897 -0.000914484 0
-0.000161371 -0.000422696 0
-0.000165906 -0.000423464 0
-0.000163897 -0.000914484 0
-0.000170232 -0.000916869 0
-0.000165906 -0.000423464 0
-0.000171158 -0.000424384 0
-0.000170232 -0.000916869 0
-0.000174811 -0.000919839 0
-0.000171158 -0.000424384 0
-0.000173793 -0.000425373 0
-0.000174811 -0.000919839 0
-0.000176561 -0.000922977 0
-0.000173793 -0.000425373 0
-0.000176477 -0.000426168 0
-0.000176561 -0.000922977 0
-0.000177632 -0.000926093 0
-0.000176477 -0.000426168 0
-0.000174504 -0.000426508 0
-0.000177632 -0.000926093 0
-0.000175176 -0.000929333 0
-0.000174504 -0.000426508 0
-0.000170673 -0.000427025 0
-0.000175176 -0.000929333 0
-0.000171352 -0.00093198 0
-0.000170673 -0.000427025 0
-0.000162127 -0.000427113 0
-0.000171352 -0.00093198 0
-0.000163048 -0.000933976 0
-0.000162127 -0.000427113 0
-0.000153363 -0.000427102 0
-0.000163048 -0.000933976 0
-0.000155074 -0.000934828 0
0.263242 -0.255595 0
0.157149 -0.150334 0
0.279741 -0.0917304 0
0.181188 -0.0882769 0
0.157149 -0.150334 0
0.109408 -0.108668 0
0.181188 -0.0882769 0
0.126854 -0.0755741 0
0.0840409 -0.0834269 0
0.0955705 -0.0638245 0
0.109408 -0.108668 0
0.126854 -0.0755741 0
0.0840409 -0.0834269 0
0.0674265 -0.0674649 0
0.0955705 -0.0638245 0
0.0751541 -0.0539178 0
0.0674265 -0.0674649 0
0.0561959 -0.0562544 0
0.0751541 -0.0539178 0
0.0615396 -0.0468889 0
0.0561959 -0.0562544 0
0.0478009 -0.0480448 0
0.0615396 -0.0468889 0
0.05155 -0.040979 0
0.0478009 -0.0480448 0
0.0413807 -0.0416425 0
0.05155 -0.040979 0
0.0440149 -0.0363746 0
0.0360847 -0.0364191 0
0.0379447 -0.0322598 0
0.0413807 -0.0416425 0
0.0440149 -0.0363746 0
0.0315946 -0.0319512 0
0.0328662 -0.0287055 0
0.0360847 -0.0364191 0
0.0379447 -0.0322598 0
0.0315946 -0.0319512 0
0.0276223 -0.0280141 0
0.0328662 -0.0287055 0
0.0284655 -0.0254108 0
0.0276223 -0.0280141 0
0.0240487 -0.0244571 0
0.0284655 -0.0254108 0
0.0245562 -0.0223806 0
0.0240487 -0.0244571 0
0.0207933 -0.0212156 0
0.0245562 -0.0223806 0
0.0210439 -0.0195466 0
0.0207933 -0.0212156 0
0.0178287 -0.0182592 0
0.0210439 -0.0195466 0
0.0178691 -0.0169214 0
0.0178287 -0.0182592 0
0.0151394 -0.0155759 0
0.0178691 -0.0169214 0
0.0150165 -0.0144989 0
0.0151394 -0.0155759 0
0.0127343 -0.0131751 0
0.0150165 -0.0144989 0
0.0124836 -0.0123119 0
0.0127343 -0.0131751 0
0.0105998 -0.011044 0
0.0124836 -0.0123119 0
0.010244 -0.0103586 0
0.00876088 -0.00919782 0
0.00832105 -0.00865972 0
0.0105998 -0.011044 0
0.010244 -0.0103586 0
0.00717155 -0.0076038 0
0.00663633 -0.00718015 0
0.00876088 -0.00919782 0
0.00832105 -0.00865972 0
0.00717155 -0.0076038 0
0.00586016 -0.00630045 0
0.00663633 -0.00718015 0
0.00527047 -0.00594062 0
0.00473648 -0.00519369 0
0.0041144 -0.00488932 0
0.00586016 -0.00630045 0
0.00527047 -0.00594062 0
0.00385538 -0.00434312 0
0.00326358 -0.00406175 0
0.00473648 -0.00519369 0
0.0041144 -0.00488932 0
0.00385538 -0.00434312 0
0.00309168 -0.00358083 0
0.00326358 -0.00406175 0
0.00250662 -0.00339689 0
0.00259348 -0.00306942 0
0.00198435 -0.00293372 0
0.00309168 -0.00358083 0
0.00250662 -0.00339689 0
0.00259348 -0.00306942 0
0.0021357 -0.00261404 0
0.00198435 -0.00293372 0
0.00149532 -0.00248853 0
0.0021357 -0.00261404 0
0.00185968 -0.00235294 0
0.00149532 -0.00248853 0
0.0012872 -0.00222565 0
0.00185968 -0.00235294 0
0.00146809 -0.0019647 0
0.0012872 -0.00222565 0
0.000972965 -0.00178442 0
0.00146809 -0.0019647 0
0.00110065 -0.00155809 0
0.000972965 -0.00178442 0
0.001011 -0.00174178 0
0.00110065 -0.00155809 0
0.000744918 -0.00106783 0
0.001011 -0.00174178 0
0.000653874 -0.000953279 0
0.000744918 -0.00106783 0
0.000353512 -0.000557419 0
0.000653874 -0.000953279 0
0.00048134 -0.0011385 0
0.000353512 -0.000557419 0
0.000722441 -0.000282974 0
0.00048134 -0.0011385 0
0.000613283 -0.000882548 0
0.000722441 -0.000282974 0
0.000568102 -0.00037786 0
0.000613283 -0.000882548 0
0.000143226 -0.000913622 0
0.000568102 -0.00037786 0
0.000402562 -0.00045386 0
0.000143226 -0.000913622 0
0.000313879 -0.000842807 0
0.000402562 -0.00045386 0
2.99506e-05 -0.000405997 0
0.000313879 -0.000842807 0
7.96505e-05 -0.000941312 0
-0.000163048 -0.000933976 0
-0.000155074 -0.000934828 0
-0.000164434 -0.00061549 0
-0.000157199 -0.000618973 0
-0.000164434 -0.00061549 0
-0.000157199 -0.000618973 0
-0.000169215 -0.00102108 0
-0.000162706 -0.00102393 0
-0.000169215 -0.00102108 0
-0.000162706 -0.00102393 0
-0.000176582 -0.000806406 0
-0.000169488 -0.000810671 0
-0.000176582 -0.000806406 0
-0.000169488 -0.000810671 0
-0.000185039 -0.00113626 0
-0.000180104 -0.00114164 0
-0.000185039 -0.00113626 0
-0.000180104 -0.00114164 0
-0.000196464 -0.00100597 0
-0.000190837 -0.0010119 0
-0.000196464 -0.00100597 0
-0.000190837 -0.0010119 0
-0.000207982 -0.00128165 0
-0.000203969 -0.00128893 0
-0.000222899 -0.00122098 0
-0.000207982 -0.00128165 0
-0.000218644 -0.00122917 0
-0.000203969 -0.00128893 0
-0.000222899 -0.00122098 0
-0.000218644 -0.00122917 0
-0.000239252 -0.00145629 0
-0.000235893 -0.0014656 0
-0.000239252 -0.00145629 0
-0.000235893 -0.0014656 0
-0.000259037 -0.00144981 0
-0.000256046 -0.00146076 0
-0.000259037 -0.00144981 0
-0.000256046 -0.00146076 0
-0.000282528 -0.00164858 0
-0.000280951 -0.00166088 0
-0.000282528 -0.00164858 0
-0.000280951 -0.00166088 0
-0.000310367 -0.00167743 0
-0.000310653 -0.00169211 0
-0.000310367 -0.00167743 0
-0.000310653 -0.00169211 0
-0.000344592 -0.00183189 0
-0.000350025 -0.00184893 0
-0.000344592 -0.00183189 0
-0.000350025 -0.00184893 0
-0.000384206 -0.00187133 0
-0.000397045 -0.00189087 0
-0.000384206 -0.00187133 0
-0.000397045 -0.00189087 0
-0.000430265 -0.00196205 0
-0.000455788 -0.00198408 0
-0.000430265 -0.00196205 0
-0.000455788 -0.00198408 0
-0.000478206 -0.00198325 0
-0.000520796 -0.00200581 0
-0.000478206 -0.00198325 0
-0.000520796 -0.00200581 0
-0.000523771 -0.00198535 0
-0.000587308 -0.00200608 0
-0.000523771 -0.00198535 0
-0.000587308 -0.00200608 0
-0.000556235 -0.001968 0
-0.000640457 -0.00198192 0
-0.000556235 -0.001968 0
-0.000640457 -0.00198192 0
-0.000566376 -0.00187203 0
-0.000664057 -0.00187478 0
-0.000566376 -0.00187203 0
-0.000664057 -0.00187478 0
-0.00054684 -0.00183438 0
-0.000643341 -0.00182289 0
-0.00054684 -0.00183438 0
-0.000643341 -0.00182289 0
-0.000499433 -0.00167055 0
-0.000580415 -0.001649 0
-0.000499433 -0.00167055 0
-0.000580415 -0.001649 0
-0.000434198 -0.00166951 0
-0.000493222 -0.00164188 0
-0.000434198 -0.00166951 0
-0.000493222 -0.00164188 0
-0.00036116 -0.00146924 0
-0.000398542 -0.0014418 0
-0.00036116 -0.00146924 0
-0.000398542 -0.0014418 0
-0.000294207 -0.00154687 0
-0.000313671 -0.00152097 0
-0.000294207 -0.00154687 0
-0.000313671 -0.00152097 0
-0.00023073 -0.00130144 0
-0.000237881 -0.00128164 0
-0.00023073 -0.00130144 0
-0.000237881 -0.00128164 0
-0.000187309 -0.0014812 0
-0.000188819 -0.0014634 0
-0.000187309 -0.0014812 0
-0.000188819 -0.0014634 0
-0.000142192 -0.00115793 0
-0.000138383 -0.00114338 0
-0.000142192 -0.00115793 0
-0.000138383 -0.00114338 0
-0.00011275 -0.00148446 0
-0.000108675 -0.0014723 0
-0.00011275 -0.00148446 0
-0.000108675 -0.0014723 0
-7.97903e-05 -0.00102671 0
-7.249e-05 -0.00101855 0
-7.97903e-05 -0.00102671 0
-7.249e-05 -0.00101855 0
-7.10026e-05 -0.00156029 0
-6.41975e-05 -0.00155648 0
-7.10026e-05 -0.00156029 0
-6.41975e-05 -0.00155648 0
-6.23165e-05 -0.000876978 0
-5.55007e-05 -0.000873741 0
-6.23165e-05 -0.000876978 0
-5.55007e-05 -0.000873741 0
-6.36561e-05 -0.00171131 0
-5.56985e-05 -0.001711 0
0.279741 -0.0917304 0
0.181188 -0.0882769 0
0.221319 0.0151148 0
0.169672 -0.0214559 0
0.181188 -0.0882769 0
0.126854 -0.0755741 0
0.169672 -0.0214559 0
0.12625 -0.0336068 0
0.0955705 -0.0638245 0
0.0975817 -0.0366751 0
0.126854 -0.0755741 0
0.12625 -0.0336068 0
0.0955705 -0.0638245 0
0.0751541 -0.0539178 0
0.0975817 -0.0366751 0
0.0778265 -0.0356422 0
0.0751541 -0.0539178 0
0.0615396 -0.0468889 0
0.0778265 -0.0356422 0
0.0638633 -0.0336159 0
0.0615396 -0.0468889 0
0.05155 -0.040979 0
0.0638633 -0.0336159 0
0.053643 -0.0312344 0
0.05155 -0.040979 0
0.0440149 -0.0363746 0
0.053643 -0.0312344 0
0.0456804 -0.028718 0
0.0379447 -0.0322598 0
0.0393215 -0.0262892 0
0.0440149 -0.0363746 0
0.0456804 -0.028718 0
0.0328662 -0.0287055 0
0.0339068 -0.0238533 0
0.0379447 -0.0322598 0
0.0393215 -0.0262892 0
0.0328662 -0.0287055 0
0.0284655 -0.0254108 0
0.0339068 -0.0238533 0
0.0292628 -0.0214757 0
0.0284655 -0.0254108 0
0.0245562 -0.0223806 0
0.0292628 -0.0214757 0
0.025107 -0.0191072 0
0.0245562 -0.0223806 0
0.0210439 -0.0195466 0
0.025107 -0.0191072 0
0.0214223 -0.016824 0
0.0210439 -0.0195466 0
0.0178691 -0.0169214 0
0.0214223 -0.016824 0
0.0180942 -0.0146107 0
0.0178691 -0.0169214 0
0.0150165 -0.0144989 0
0.0180942 -0.0146107 0
0.0151297 -0.0125455 0
0.0150165 -0.0144989 0
0.0124836 -0.0123119 0
0.0151297 -0.0125455 0
0.0124785 -0.0106361 0
0.0124836 -0.0123119 0
0.010244 -0.0103586 0
0.0124785 -0.0106361 0
0.0101685 -0.00891587 0
0.00832105 -0.00865972 0
0.00818684 -0.00737113 0
0.010244 -0.0103586 0
0.0101685 -0.00891587 0
0.00663633 -0.00718015 0
0.0065088 -0.00604674 0
0.00832105 -0.00865972 0
0.00818684 -0.00737113 0
0.00663633 -0.00718015 0
0.00527047 -0.00594062 0
0.0065088 -0.00604674 0
0.00512627 -0.00493048 0
0.0041144 -0.00488932 0
0.00394806 -0.00404383 0
0.00527047 -0.00594062 0
0.00512627 -0.00493048 0
0.00326358 -0.00406175 0
0.00303294 -0.00331005 0
0.0041144 -0.00488932 0
0.00394806 -0.00404383 0
0.00326358 -0.00406175 0
0.00250662 -0.00339689 0
0.00303294 -0.00331005 0
0.00221607 -0.00266725 0
0.00198435 -0.00293372 0
0.0016921 -0.00216087 0
0.00250662 -0.00339689 0
0.00221607 -0.00266725 0
0.00198435 -0.00293372 0
0.00149532 -0.00248853 0
0.0016921 -0.00216087 0
0.00119906 -0.0019002 0
0.00149532 -0.00248853 0
0.0012872 -0.00222565 0
0.00119906 -0.0019002 0
0.00110371 -0.00162387 0
0.0012872 -0.00222565 0
0.000972965 -0.00178442 0
0.00110371 -0.00162387 0
0.000687181 -0.0014925 0
0.000972965 -0.00178442 0
0.001011 -0.00174178 0
0.000687181 -0.0014925 0