# vtk DataFile Version 3.0
#This file was generated by the deal.II library on 2016/12/20 at 10:57:07
ASCII
DATASET UNSTRUCTURED_GRID

POINTS 7480 double
0.12 -0.5 0
0.15 -0.5 0
0.119014 -0.4708 0
0.15 -0.471429 0
0.11755 -0.441479 0
0.119014 -0.4708 0
0.15 -0.442857 0
0.15 -0.471429 0
0.117242 -0.412206 0
0.11755 -0.441479 0
0.15 -0.414286 0
0.15 -0.442857 0
0.118129 -0.383064 0
0.117242 -0.412206 0
0.15 -0.385714 0
0.15 -0.414286 0
0.12021 -0.354337 0
0.118129 -0.383064 0
0.15 -0.357143 0
0.15 -0.385714 0
0.121793 -0.32584 0
0.12021 -0.354337 0
0.15 -0.328571 0
0.15 -0.357143 0
0.122717 -0.296869 0
0.121793 -0.32584 0
0.15 -0.3 0
0.15 -0.328571 0
0.123759 -0.266752 0
0.122717 -0.296869 0
0.153091 -0.267708 0
0.15 -0.3 0
0.18456 -0.26795 0
0.153091 -0.267708 0
0.183333 -0.3 0
0.15 -0.3 0
0.216606 -0.268111 0
0.18456 -0.26795 0
0.216667 -0.3 0
0.183333 -0.3 0
0.24835 -0.26841 0
0.216606 -0.268111 0
0.25 -0.3 0
0.216667 -0.3 0
0.278782 -0.268564 0
0.24835 -0.26841 0
0.279437 -0.298917 0
0.25 -0.3 0
0.279638 -0.328111 0
0.279437 -0.298917 0
0.25 -0.328571 0
0.25 -0.3 0
0.27971 -0.356801 0
0.279638 -0.328111 0
0.25 -0.357143 0
0.25 -0.328571 0
0.279677 -0.385395 0
0.27971 -0.356801 0
0.25 -0.385714 0
0.25 -0.357143 0
0.279641 -0.413938 0
0.279677 -0.385395 0
0.25 -0.414286 0
0.25 -0.385714 0
0.279666 -0.442534 0
0.279641 -0.413938 0
0.25 -0.442857 0
0.25 -0.414286 0
0.279811 -0.471266 0
0.279666 -0.442534 0
0.25 -0.471429 0
0.25 -0.442857 0
0.28 -0.5 0
0.279811 -0.471266 0
0.25 -0.5 0
0.25 -0.471429 0
0.970149 0.5 0
0.970096 0.46978 0
1 0.5 0
1 0.469697 0
0.940299 0.5 0
0.940231 0.46984 0
0.970149 0.5 0
0.970096 0.46978 0
0.910448 0.5 0
0.910371 0.469856 0
0.940299 0.5 0
0.940231 0.46984 0
0.880597 0.5 0
0.880527 0.469909 0
0.910448 0.5 0
0.910371 0.469856 0
0.850746 0.5 0
0.850684 0.469926 0
0.880597 0.5 0
0.880527 0.469909 0
0.820896 0.5 0
0.820842 0.469978 0
0.850746 0.5 0
0.850684 0.469926 0
0.791045 0.5 0
0.791001 0.470016 0
0.820896 0.5 0
0.820842 0.469978 0
0.761194 0.5 0
0.761159 0.470055 0
0.791045 0.5 0
0.791001 0.470016 0
0.731343 0.5 0
0.731316 0.470091 0
0.761194 0.5 0
0.761159 0.470055 0
0.701493 0.5 0
0.701472 0.470118 0
0.731343 0.5 0
0.731316 0.470091 0
0.671642 0.5 0
0.671627 0.470134 0
0.701493 0.5 0
0.701472 0.470118 0
0.641791 0.5 0
0.64178 0.470142 0
0.671642 0.5 0
0.671627 0.470134 0
0.641791 0.5 0
0.61194 0.5 0
0.64178 0.470142 0
0.611934 0.470065 0
0.58209 0.5 0
0.582089 0.470002 0
0.61194 0.5 0
0.611934 0.470065 0
0.552239 0.5 0
0.552248 0.469853 0
0.58209 0.5 0
0.582089 0.470002 0
0.522388 0.5 0
0.522413 0.469718 0
0.552239 0.5 0
0.552248 0.469853 0
0.492537 0.5 0
0.492577 0.469656 0
0.522388 0.5 0
0.522413 0.469718 0
0.462687 0.5 0
0.462743 0.469571 0
0.492537 0.5 0
0.492577 0.469656 0
0.432836 0.5 0
0.432895 0.46963 0
0.462687 0.5 0
0.462743 0.469571 0
0.402985 0.5 0
0.403046 0.469669 0
0.432836 0.5 0
0.432895 0.46963 0
0.373134 0.5 0
0.373191 0.469745 0
0.402985 0.5 0
0.403046 0.469669 0
0.343284 0.5 0
0.343335 0.469723 0
0.373134 0.5 0
0.373191 0.469745 0
0.313433 0.5 0
0.313478 0.469741 0
0.343284 0.5 0
0.343335 0.469723 0
0.283582 0.5 0
0.283622 0.469783 0
0.313433 0.5 0
0.313478 0.469741 0
0.253731 0.5 0
0.253768 0.469742 0
0.283582 0.5 0
0.283622 0.469783 0
0.223881 0.5 0
0.223918 0.469737 0
0.253731 0.5 0
0.253768 0.469742 0
0.19403 0.5 0
0.194064 0.46981 0
0.223881 0.5 0
0.223918 0.469737 0
0.164179 0.5 0
0.16421 0.469881 0
0.19403 0.5 0
0.194064 0.46981 0
0.134328 0.5 0
0.134355 0.46994 0
0.164179 0.5 0
0.16421 0.469881 0
0.104478 0.5 0
0.1045 0.469997 0
0.134328 0.5 0
0.134355 0.46994 0
0.074627 0.5 0
0.074645 0.470051 0
0.104478 0.5 0
0.1045 0.469997 0
0.044776 0.5 0
0.04479 0.470093 0
0.074627 0.5 0
0.074645 0.470051 0
0.014925 0.5 0
0.014935 0.47012 0
0.044776 0.5 0
0.04479 0.470093 0
-0.014925 0.5 0
-0.014918 0.470135 0
0.014925 0.5 0
0.014935 0.47012 0
-0.044776 0.5 0
-0.044771 0.470143 0
-0.014925 0.5 0
-0.014918 0.470135 0
-0.074627 0.5 0
-0.074623 0.470146 0
-0.044776 0.5 0
-0.044771 0.470143 0
-0.104478 0.5 0
-0.104496 0.469979 0
-0.074627 0.5 0
-0.074623 0.470146 0
-0.134328 0.5 0
-0.134359 0.469935 0
-0.104478 0.5 0
-0.104496 0.469979 0
-0.164179 0.5 0
-0.164225 0.469839 0
-0.134328 0.5 0
-0.134359 0.469935 0
-0.164179 0.5 0
-0.19403 0.5 0
-0.164225 0.469839 0
-0.194083 0.469797 0
-0.223881 0.5 0
-0.22394 0.469753 0
-0.19403 0.5 0
-0.194083 0.469797 0
-0.253731 0.5 0
-0.253798 0.469819 0
-0.223881 0.5 0
-0.22394 0.469753 0
-0.283582 0.5 0
-0.283647 0.470019 0
-0.253731 0.5 0
-0.253798 0.469819 0
-0.313433 0.5 0
-0.313491 0.470151 0
-0.283582 0.5 0
-0.283647 0.470019 0
-0.343284 0.5 0
-0.343348 0.470381 0
-0.313433 0.5 0
-0.313491 0.470151 0
-0.343284 0.5 0
-0.373134 0.5 0
-0.343348 0.470381 0
-0.373195 0.470395 0
-0.373134 0.5 0
-0.402985 0.5 0
-0.373195 0.470395 0
-0.403049 0.470404 0
-0.432836 0.5 0
-0.432937 0.470297 0
-0.402985 0.5 0
-0.403049 0.470404 0
-0.462687 0.5 0
-0.462848 0.469995 0
-0.432836 0.5 0
-0.432937 0.470297 0
-0.492537 0.5 0
-0.492807 0.469765 0
-0.462687 0.5 0
-0.462848 0.469995 0
-0.522388 0.5 0
-0.52276 0.46958 0
-0.492537 0.5 0
-0.492807 0.469765 0
-0.552239 0.5 0
-0.55273 0.469652 0
-0.522388 0.5 0
-0.52276 0.46958 0
-0.58209 0.5 0
-0.582662 0.469731 0
-0.552239 0.5 0
-0.55273 0.469652 0
-0.61194 0.5 0
-0.612594 0.469999 0
-0.58209 0.5 0
-0.582662 0.469731 0
-0.641791 0.5 0
-0.642647 0.470419 0
-0.61194 0.5 0
-0.612594 0.469999 0
-0.671642 0.5 0
-0.672638 0.470543 0
-0.641791 0.5 0
-0.642647 0.470419 0
-0.701493 0.5 0
-0.702968 0.4698 0
-0.671642 0.5 0
-0.672638 0.470543 0
-0.701493 0.5 0
-0.731343 0.5 0
-0.702968 0.4698 0
-0.733232 0.468149 0
-0.731343 0.5 0
-0.761194 0.5 0
-0.733232 0.468149 0
-0.765399 0.466448 0
-0.820896 0.5 0
-0.822797 0.47207 0
-0.791045 0.5 0
-0.795702 0.469563 0
0.31 -0.5 0
0.309694 -0.471123 0
0.28 -0.5 0
0.279811 -0.471266 0
0.31 -0.5 0
0.34 -0.5 0
0.309694 -0.471123 0
0.339686 -0.471033 0
0.37 -0.5 0
0.369721 -0.471055 0
0.34 -0.5 0
0.339686 -0.471033 0
0.37 -0.5 0
0.4 -0.5 0
0.369721 -0.471055 0
0.399756 -0.470957 0
0.4 -0.5 0
0.43 -0.5 0
0.399756 -0.470957 0
0.429805 -0.470822 0
0.43 -0.5 0
0.46 -0.5 0
0.429805 -0.470822 0
0.459835 -0.470712 0
0.46 -0.5 0
0.49 -0.5 0
0.459835 -0.470712 0
0.489873 -0.470554 0
0.49 -0.5 0
0.52 -0.5 0
0.489873 -0.470554 0
0.519906 -0.470379 0
0.52 -0.5 0
0.55 -0.5 0
0.519906 -0.470379 0
0.54993 -0.470248 0
0.55 -0.5 0
0.58 -0.5 0
0.54993 -0.470248 0
0.579948 -0.470155 0
0.58 -0.5 0
0.61 -0.5 0
0.579948 -0.470155 0
0.609962 -0.470091 0
0.61 -0.5 0
0.64 -0.5 0
0.609962 -0.470091 0
0.639972 -0.47005 0
0.64 -0.5 0
0.67 -0.5 0
0.639972 -0.47005 0
0.66998 -0.470026 0
0.67 -0.5 0
0.7 -0.5 0
0.66998 -0.470026 0
0.699986 -0.470013 0
0.7 -0.5 0
0.73 -0.5 0
0.699986 -0.470013 0
0.72999 -0.470006 0
0.73 -0.5 0
0.76 -0.5 0
0.72999 -0.470006 0
0.759994 -0.470003 0
0.76 -0.5 0
0.79 -0.5 0
0.759994 -0.470003 0
0.78998 -0.469916 0
0.79 -0.5 0
0.82 -0.5 0
0.78998 -0.469916 0
0.819956 -0.469877 0
0.82 -0.5 0
0.85 -0.5 0
0.819956 -0.469877 0
0.849929 -0.469833 0
0.85 -0.5 0
0.88 -0.5 0
0.849929 -0.469833 0
0.879924 -0.469805 0
0.88 -0.5 0
0.91 -0.5 0
0.879924 -0.469805 0
0.909913 -0.469792 0
0.91 -0.5 0
0.94 -0.5 0
0.909913 -0.469792 0
0.939922 -0.469775 0
0.94 -0.5 0
0.97 -0.5 0
0.939922 -0.469775 0
0.969956 -0.46974 0
0.97 -0.5 0
1 -0.5 0
0.969956 -0.46974 0
1 -0.469697 0
-0.531915 0.031915 0
-0.510638 0.010638 0
-0.510492 0.053733 0
-0.489127 0.032461 0
-0.510638 0.010638 0
-0.489362 -0.010638 0
-0.489127 0.032461 0
-0.467791 0.011178 0
-0.489362 -0.010638 0
-0.468085 -0.031915 0
-0.467791 0.011178 0
-0.446536 -0.010172 0
-0.446809 -0.053191 0
-0.42524 -0.031466 0
-0.468085 -0.031915 0
-0.446536 -0.010172 0
-0.425532 -0.074468 0
-0.404012 -0.052824 0
-0.446809 -0.053191 0
-0.42524 -0.031466 0
-0.425532 -0.074468 0
-0.404255 -0.095745 0
-0.404012 -0.052824 0
-0.382783 -0.074175 0
-0.404255 -0.095745 0
-0.382979 -0.117021 0
-0.382783 -0.074175 0
-0.361545 -0.095511 0
-0.382979 -0.117021 0
-0.361702 -0.138298 0
-0.361545 -0.095511 0
-0.340288 -0.116831 0
-0.361702 -0.138298 0
-0.340426 -0.159574 0
-0.340288 -0.116831 0
-0.319034 -0.138159 0
-0.340426 -0.159574 0
-0.319149 -0.180851 0
-0.319034 -0.138159 0
-0.297766 -0.159484 0
-0.319149 -0.180851 0
-0.297872 -0.202128 0
-0.297766 -0.159484 0
-0.276489 -0.180797 0
-0.297872 -0.202128 0
-0.276596 -0.223404 0
-0.276489 -0.180797 0
-0.255087 -0.202105 0
-0.255319 -0.244681 0
-0.233674 -0.223466 0
-0.276596 -0.223404 0
-0.255087 -0.202105 0
-0.234043 -0.265957 0
-0.212119 -0.244916 0
-0.255319 -0.244681 0
-0.233674 -0.223466 0
-0.234043 -0.265957 0
-0.212766 -0.287234 0
-0.212119 -0.244916 0
-0.190657 -0.266392 0
-0.191489 -0.308511 0
-0.169261 -0.287934 0
-0.212766 -0.287234 0
-0.190657 -0.266392 0
-0.170213 -0.329787 0
-0.147854 -0.309624 0
-0.191489 -0.308511 0
-0.169261 -0.287934 0
-0.170213 -0.329787 0
-0.148936 -0.351064 0
-0.147854 -0.309624 0
-0.126431 -0.331364 0
-0.12766 -0.37234 0
-0.105256 -0.353368 0
-0.148936 -0.351064 0
-0.126431 -0.331364 0
-0.12766 -0.37234 0
-0.106383 -0.393617 0
-0.105256 -0.353368 0
-0.083924 -0.375263 0
-0.106383 -0.393617 0
-0.085106 -0.414894 0
-0.083924 -0.375263 0
-0.062097 -0.396824 0
-0.085106 -0.414894 0
-0.06383 -0.43617 0
-0.062097 -0.396824 0
-0.040132 -0.418076 0
-0.06383 -0.43617 0
-0.042553 -0.457447 0
-0.040132 -0.418076 0
-0.019646 -0.439891 0
-0.042553 -0.457447 0
-0.021277 -0.478723 0
-0.019646 -0.439891 0
-0.002475 -0.461393 0
-0.021277 -0.478723 0
0 -0.5 0
-0.002475 -0.461393 0
0.009599 -0.478226 0
0 -0.5 0
0.03 -0.5 0
0.009599 -0.478226 0
0.029922 -0.474701 0
0.03 -0.5 0
0.06 -0.5 0
0.029922 -0.474701 0
0.057397 -0.471689 0
0.06 -0.5 0
0.09 -0.5 0
0.057397 -0.471689 0
0.08796 -0.470463 0
0.09 -0.5 0
0.12 -0.5 0
0.08796 -0.470463 0
0.119014 -0.4708 0
0.969956 -0.46974 0
1 -0.469697 0
0.969923 -0.439465 0
1 -0.439394 0
0.969923 -0.439465 0
1 -0.439394 0
0.969894 -0.409159 0
1 -0.409091 0
0.969894 -0.409159 0
1 -0.409091 0
0.969889 -0.37886 0
1 -0.378788 0
0.969889 -0.37886 0
1 -0.378788 0
[...]
POINT_DATA 7480
VECTORS momentum double
0.000861629 -0.000411652 0
0.00010806 -0.000410107 0
0.00097983 -0.00146172 0
9.57065e-05 -0.00138602 0
0.000881228 -0.00162734 0
0.00097983 -0.00146172 0
0.00011628 -0.00154365 0
9.57065e-05 -0.00138602 0
0.00119019 -0.00246518 0
0.000881228 -0.00162734 0
6.09496e-05 -0.00248865 0
0.00011628 -0.00154365 0
0.00143272 -0.00238895 0
0.00119019 -0.00246518 0
4.69606e-06 -0.00232079 0
6.09496e-05 -0.00248865 0
0.00173666 -0.00272501 0
0.00143272 -0.00238895 0
0.000138422 -0.00266448 0
4.69606e-06 -0.00232079 0
0.00233351 -0.00199703 0
0.00173666 -0.00272501 0
-0.000451819 -0.00154513 0
0.000138422 -0.00266448 0
0.00356774 -0.00180058 0
0.00233351 -0.00199703 0
0.00229967 -4.12103e-05 0
-0.000451819 -0.00154513 0
0.00485079 -0.00216224 0
0.00356774 -0.00180058 0
0.0049772 -0.00146425 0
0.00229967 -4.12103e-05 0
0.00415208 -0.00283166 0
0.0049772 -0.00146425 0
0.00455588 -0.00109824 0
0.00229967 -4.12103e-05 0
0.00404643 -0.00131454 0
0.00415208 -0.00283166 0
0.00402681 0.000293588 0
0.00455588 -0.00109824 0
0.00493578 -0.00267177 0
0.00404643 -0.00131454 0
0.00220021 -0.00220445 0
0.00402681 0.000293588 0
0.00298613 -0.00282661 0
0.00493578 -0.00267177 0
0.00161973 -0.00439367 0
0.00220021 -0.00220445 0
-5.81296e-05 -0.00269233 0
0.00161973 -0.00439367 0
-0.000739997 -0.0032654 0
0.00220021 -0.00220445 0
0.000363888 -0.00237761 0
-5.81296e-05 -0.00269233 0
0.000220792 -0.00185684 0
-0.000739997 -0.0032654 0
9.96176e-06 -0.00162139 0
0.000363888 -0.00237761 0
-9.98024e-05 -0.00195222 0
0.000220792 -0.00185684 0
0.00014274 -0.00155375 0
9.96176e-06 -0.00162139 0
4.90998e-05 -0.00138101 0
-9.98024e-05 -0.00195222 0
-8.70622e-06 -0.000968793 0
0.00014274 -0.00155375 0
-2.6881e-05 -0.00108037 0
4.90998e-05 -0.00138101 0
4.33382e-05 -0.00104512 0
-8.70622e-06 -0.000968793 0
1.45946e-05 -0.000988583 0
-2.6881e-05 -0.00108037 0
9.51732e-06 -0.000432441 0
4.33382e-05 -0.00104512 0
-9.02778e-06 -0.000470939 0
1.45946e-05 -0.000988583 0
-0.000193862 -0.000652435 0
-0.000185225 -0.00179464 0
-0.000179599 -0.000652638 0
-0.000168153 -0.00179561 0
-0.000206908 -0.000652966 0
-0.00020144 -0.00179616 0
-0.000193862 -0.000652435 0
-0.000185225 -0.00179464 0
-0.000214919 -0.000652592 0
-0.000209212 -0.00179835 0
-0.000206908 -0.000652966 0
-0.00020144 -0.00179616 0
-0.000221448 -0.00065171 0
-0.000216475 -0.00179967 0
-0.000214919 -0.000652592 0
-0.000209212 -0.00179835 0
-0.000223302 -0.000650996 0
-0.000217697 -0.00180116 0
-0.000221448 -0.00065171 0
-0.000216475 -0.00179967 0
-0.000223095 -0.000649553 0
-0.00021731 -0.00180218 0
-0.000223302 -0.000650996 0
-0.000217697 -0.00180116 0
-0.000217389 -0.000648779 0
-0.000212285 -0.00180342 0
-0.000223095 -0.000649553 0
-0.00021731 -0.00180218 0
-0.000209381 -0.000647181 0
-0.000204362 -0.00180541 0
-0.000217389 -0.000648779 0
-0.000212285 -0.00180342 0
-0.000195381 -0.000645904 0
-0.000193565 -0.00180758 0
-0.000209381 -0.000647181 0
-0.000204362 -0.00180541 0
-0.000178708 -0.000645061 0
-0.000179055 -0.00181028 0
-0.000195381 -0.000645904 0
-0.000193565 -0.00180758 0
-0.00015672 -0.000643747 0
-0.000161639 -0.00181263 0
-0.000178708 -0.000645061 0
-0.000179055 -0.00181028 0
-0.000131553 -0.000642935 0
-0.000145655 -0.00181586 0
-0.00015672 -0.000643747 0
-0.000161639 -0.00181263 0
-0.000131553 -0.000642935 0
-0.000107446 -0.000643403 0
-0.000145655 -0.00181586 0
-0.0001266 -0.00181953 0
-8.2005e-05 -0.000643622 0
-0.000108223 -0.00182433 0
-0.000107446 -0.000643403 0
-0.0001266 -0.00181953 0
-5.8416e-05 -0.000646151 0
-8.83128e-05 -0.00182748 0
-8.2005e-05 -0.000643622 0
-0.000108223 -0.00182433 0
-3.8846e-05 -0.000648569 0
-6.08708e-05 -0.00182674 0
-5.8416e-05 -0.000646151 0
-8.83128e-05 -0.00182748 0
-1.3134e-05 -0.000649496 0
-3.00393e-05 -0.00182067 0
-3.8846e-05 -0.000648569 0
-6.08708e-05 -0.00182674 0
1.20763e-05 -0.000651083 0
5.42449e-06 -0.00181115 0
-1.3134e-05 -0.000649496 0
-3.00393e-05 -0.00182067 0
4.22793e-05 -0.000651216 0
4.96476e-05 -0.00179868 0
1.20763e-05 -0.000651083 0
5.42449e-06 -0.00181115 0
9.34839e-05 -0.000649765 0
0.000110244 -0.00178391 0
4.22793e-05 -0.000651216 0
4.96476e-05 -0.00179868 0
0.000176405 -0.000647399 0
0.000194731 -0.00176909 0
9.34839e-05 -0.000649765 0
0.000110244 -0.00178391 0
0.000301366 -0.000646745 0
0.000320296 -0.00174963 0
0.000176405 -0.000647399 0
0.000194731 -0.00176909 0
0.00047192 -0.000645701 0
0.000498754 -0.00172856 0
0.000301366 -0.000646745 0
0.000320296 -0.00174963 0
0.000707363 -0.000644892 0
0.000737385 -0.00169698 0
0.00047192 -0.000645701 0
0.000498754 -0.00172856 0
0.00101291 -0.000644905 0
0.00104687 -0.00165353 0
0.000707363 -0.000644892 0
0.000737385 -0.00169698 0
0.00138922 -0.000646869 0
0.00143748 -0.0015974 0
0.00101291 -0.000644905 0
0.00104687 -0.00165353 0
0.0018418 -0.000649089 0
0.00191572 -0.0015305 0
0.00138922 -0.000646869 0
0.00143748 -0.0015974 0
0.00238443 -0.000646131 0
0.00248472 -0.00145603 0
0.0018418 -0.000649089 0
0.00191572 -0.0015305 0
0.00300614 -0.000641149 0
0.00312839 -0.00137111 0
0.00238443 -0.000646131 0
0.00248472 -0.00145603 0
0.00369206 -0.000634534 0
0.00383607 -0.00127265 0
0.00300614 -0.000641149 0
0.00312839 -0.00137111 0
0.00440557 -0.000626738 0
0.00456927 -0.00116062 0
0.00369206 -0.000634534 0
0.00383607 -0.00127265 0
0.00510585 -0.000618986 0
0.00528301 -0.00103021 0
0.00440557 -0.000626738 0
0.00456927 -0.00116062 0
0.00572346 -0.000614019 0
0.00591164 -0.000878597 0
0.00510585 -0.000618986 0
0.00528301 -0.00103021 0
0.00617566 -0.000609639 0
0.00637817 -0.000701771 0
0.00572346 -0.000614019 0
0.00591164 -0.000878597 0
0.00636925 -0.000604315 0
0.00657942 -0.000492418 0
0.00617566 -0.000609639 0
0.00637817 -0.000701771 0
0.00617426 -0.000599318 0
0.006381 -0.000238734 0
0.00636925 -0.000604315 0
0.00657942 -0.000492418 0
0.00547013 -0.000593989 0
0.00568089 7.52705e-05 0
0.00617426 -0.000599318 0
0.006381 -0.000238734 0
0.00409428 -0.00058911 0
0.00430552 0.000454378 0
0.00547013 -0.000593989 0
0.00568089 7.52705e-05 0
0.0019761 -0.000582637 0
0.0021814 0.000912079 0
0.00409428 -0.00058911 0
0.00430552 0.000454378 0
0.0019761 -0.000582637 0
-0.00110993 -0.000574833 0
0.0021814 0.000912079 0
-0.000904554 0.00146437 0
-0.00514609 -0.000556859 0
-0.00494338 0.00211749 0
-0.00110993 -0.000574833 0
-0.000904554 0.00146437 0
-0.0104559 -0.000536602 0
-0.0102677 0.0029161 0
-0.00514609 -0.000556859 0
-0.00494338 0.00211749 0
-0.0169155 -0.000502592 0
-0.016773 0.00386778 0
-0.0104559 -0.000536602 0
-0.0102677 0.0029161 0
-0.0250697 -0.000467679 0
-0.0249892 0.00501113 0
-0.0169155 -0.000502592 0
-0.016773 0.00386778 0
-0.034575 -0.000416947 0
-0.0346295 0.00634767 0
-0.0250697 -0.000467679 0
-0.0249892 0.00501113 0
-0.034575 -0.000416947 0
-0.046323 -0.00036969 0
-0.0346295 0.00634767 0
-0.046551 0.00796714 0
-0.046323 -0.00036969 0
-0.0596821 -0.000313874 0
-0.046551 0.00796714 0
-0.0601558 0.00984471 0
-0.0759541 -0.000259553 0
-0.0767044 0.0119405 0
-0.0596821 -0.000313874 0
-0.0601558 0.00984471 0
-0.0940254 -0.000195353 0
-0.0951621 0.0143249 0
-0.0759541 -0.000259553 0
-0.0767044 0.0119405 0
-0.115503 -0.00016144 0
-0.117132 0.0165892 0
-0.0940254 -0.000195353 0
-0.0951621 0.0143249 0
-0.13837 -0.000144841 0
-0.1407 0.0185415 0
-0.115503 -0.00016144 0
-0.117132 0.0165892 0
-0.164369 -0.000200762 0
-0.167146 0.0198353 0
-0.13837 -0.000144841 0
-0.1407 0.0185415 0
-0.190738 -0.000125465 0
-0.194099 0.0208808 0
-0.164369 -0.000200762 0
-0.167146 0.0198353 0
-0.220031 -0.000239735 0
-0.223581 0.02201 0
-0.190738 -0.000125465 0
-0.194099 0.0208808 0
-0.249422 -0.000298234 0
-0.253457 0.0239469 0
-0.220031 -0.000239735 0
-0.223581 0.02201 0
-0.283096 -0.000184831 0
-0.284983 0.0261178 0
-0.249422 -0.000298234 0
-0.253457 0.0239469 0
-0.315245 0.00050496 0
-0.319383 0.03031 0
-0.283096 -0.000184831 0
-0.284983 0.0261178 0
-0.315245 0.00050496 0
-0.352786 0.000458643 0
-0.319383 0.03031 0
-0.350605 0.0283906 0
-0.352786 0.000458643 0
-0.368992 0.000559966 0
-0.350605 0.0283906 0
-0.381489 0.0145116 0
-0.348947 0.000295546 0
-0.342107 -0.0250379 0
-0.369446 -0.00156009 0
-0.378965 -0.0162036 0
2.74379e-05 -0.000426813 0
3.9782e-05 -0.00104341 0
9.51732e-06 -0.000432441 0
4.33382e-05 -0.00104512 0
2.74379e-05 -0.000426813 0
1.81645e-05 -0.000412666 0
3.9782e-05 -0.00104341 0
3.34628e-05 -0.0010483 0
1.94843e-06 -0.000416324 0
6.84785e-06 -0.00102435 0
1.81645e-05 -0.000412666 0
3.34628e-05 -0.0010483 0
1.94843e-06 -0.000416324 0
-2.60424e-05 -0.000412259 0
6.84785e-06 -0.00102435 0
-2.35978e-05 -0.00101563 0
-2.60424e-05 -0.000412259 0
-5.71324e-05 -0.000416976 0
-2.35978e-05 -0.00101563 0
-6.13702e-05 -0.00099994 0
-5.71324e-05 -0.000416976 0
-9.64589e-05 -0.000415806 0
-6.13702e-05 -0.00099994 0
-9.69252e-05 -0.000996801 0
-9.64589e-05 -0.000415806 0
-0.000130405 -0.000417512 0
-9.69252e-05 -0.000996801 0
-0.000137054 -0.000991744 0
-0.000130405 -0.000417512 0
-0.000166175 -0.000418453 0
-0.000137054 -0.000991744 0
-0.000175115 -0.000992595 0
-0.000166175 -0.000418453 0
-0.000199285 -0.00042139 0
-0.000175115 -0.000992595 0
-0.000207642 -0.000991197 0
-0.000199285 -0.00042139 0
-0.000231283 -0.000422691 0
-0.000207642 -0.000991197 0
-0.000236071 -0.000993316 0
-0.000231283 -0.000422691 0
-0.000256758 -0.00042419 0
-0.000236071 -0.000993316 0
-0.000259794 -0.000993954 0
-0.000256758 -0.00042419 0
-0.000279303 -0.00042503 0
-0.000259794 -0.000993954 0
-0.00027982 -0.00099616 0
-0.000279303 -0.00042503 0
-0.000295687 -0.00042558 0
-0.00027982 -0.00099616 0
-0.00029417 -0.000997529 0
-0.000295687 -0.00042558 0
-0.000309019 -0.000425798 0
-0.00029417 -0.000997529 0
-0.000306017 -0.000999843 0
-0.000309019 -0.000425798 0
-0.000316169 -0.00042605 0
-0.000306017 -0.000999843 0
-0.000313342 -0.00100209 0
-0.000316169 -0.00042605 0
-0.000319208 -0.000426204 0
-0.000313342 -0.00100209 0
-0.000319713 -0.00100537 0
-0.000319208 -0.000426204 0
-0.000319737 -0.000427019 0
-0.000319713 -0.00100537 0
-0.000322201 -0.00100816 0
-0.000319737 -0.000427019 0
-0.000320149 -0.000427915 0
-0.000322201 -0.00100816 0
-0.000321974 -0.0010117 0
-0.000320149 -0.000427915 0
-0.0003174 -0.000428937 0
-0.000321974 -0.0010117 0
-0.000318413 -0.0010154 0
-0.0003174 -0.000428937 0
-0.00031516 -0.000429733 0
-0.000318413 -0.0010154 0
-0.000314592 -0.00101922 0
-0.00031516 -0.000429733 0
-0.000308784 -0.000430096 0
-0.000314592 -0.00101922 0
-0.000307823 -0.00102308 0
-0.000308784 -0.000430096 0
-0.000301739 -0.000430617 0
-0.000307823 -0.00102308 0
-0.000300887 -0.00102633 0
-0.000301739 -0.000430617 0
-0.000290939 -0.000430705 0
-0.000300887 -0.00102633 0
-0.000290454 -0.00102869 0
-0.000290939 -0.000430705 0
-0.000281622 -0.00043067 0
-0.000290454 -0.00102869 0
-0.000281984 -0.00102973 0
0.203661 -0.201174 0
0.137187 -0.132724 0
0.229682 -0.0953473 0
0.156543 -0.0912556 0
0.137187 -0.132724 0
0.100842 -0.100777 0
0.156543 -0.0912556 0
0.114712 -0.0746448 0
0.100842 -0.100777 0
0.0797947 -0.0793339 0
0.114712 -0.0746448 0
0.0887736 -0.0637147 0
0.0651136 -0.0652529 0
0.0713007 -0.0538431 0
0.0797947 -0.0793339 0
0.0887736 -0.0637147 0
0.0549152 -0.0550168 0
0.0591503 -0.0470373 0
0.0651136 -0.0652529 0
0.0713007 -0.0538431 0
0.0549152 -0.0550168 0
0.0472676 -0.0475414 0
0.0591503 -0.0470373 0
0.0503004 -0.0413482 0
0.0472676 -0.0475414 0
0.0415284 -0.0418163 0
0.0503004 -0.0413482 0
0.0436779 -0.0370703 0
0.0415284 -0.0418163 0
0.0370063 -0.0373533 0
0.0436779 -0.0370703 0
0.0385684 -0.0335016 0
0.0370063 -0.0373533 0
0.0333896 -0.0337492 0
0.0385684 -0.0335016 0
0.0344931 -0.0306126 0
0.0333896 -0.0337492 0
0.0303602 -0.0307421 0
0.0344931 -0.0306126 0
0.0311361 -0.0280933 0
0.0303602 -0.0307421 0
0.0277566 -0.0281463 0
0.0311361 -0.0280933 0
0.028273 -0.0258962 0
0.0277566 -0.0281463 0
0.0254132 -0.0258136 0
0.028273 -0.0258962 0
0.0257226 -0.0238671 0
0.0232715 -0.02367 0
0.0234123 -0.0219827 0
0.0254132 -0.0258136 0
0.0257226 -0.0238671 0
0.0212247 -0.021622 0
0.0211928 -0.0201468 0
0.0232715 -0.02367 0
0.0234123 -0.0219827 0
0.0212247 -0.021622 0
0.0192913 -0.0196978 0
0.0211928 -0.0201468 0
0.0191204 -0.0183781 0
0.0173742 -0.0177995 0
0.0170882 -0.0166206 0
0.0192913 -0.0196978 0
0.0191204 -0.0183781 0
0.0155555 -0.0160122 0
0.0152151 -0.0149369 0
0.0173742 -0.0177995 0
0.0170882 -0.0166206 0
0.0155555 -0.0160122 0
0.0137286 -0.0141934 0
0.0152151 -0.0149369 0
0.013318 -0.0132742 0
0.0120816 -0.0125412 0
0.0115643 -0.0117412 0
0.0137286 -0.0141934 0
0.013318 -0.0132742 0
0.0120816 -0.0125412 0
0.0104248 -0.0108953 0
0.0115643 -0.0117412 0
0.00982034 -0.0101387 0
0.0104248 -0.0108953 0
0.00890847 -0.00938656 0
0.00982034 -0.0101387 0
0.00831394 -0.00869699 0
0.00890847 -0.00938656 0
0.00728041 -0.00776409 0
0.00831394 -0.00869699 0
0.00676955 -0.00699499 0
0.00728041 -0.00776409 0
0.00558982 -0.00598107 0
0.00676955 -0.00699499 0
0.00556605 -0.00568914 0
0.00558982 -0.00598107 0
0.00378214 -0.00414687 0
0.00556605 -0.00568914 0
0.00412008 -0.00360892 0
0.00378214 -0.00414687 0
0.00170113 -0.00114849 0
0.00412008 -0.00360892 0
0.00331357 -0.00273321 0
0.00170113 -0.00114849 0
0.00328494 -0.000263148 0
0.00331357 -0.00273321 0
0.00337591 -0.00208217 0
0.00328494 -0.000263148 0
0.00278524 -0.000423566 0
0.00337591 -0.00208217 0
0.0025337 -0.00172871 0
0.00278524 -0.000423566 0
0.00209681 -0.000481768 0
0.0025337 -0.00172871 0
0.00207835 -0.00149487 0
0.00209681 -0.000481768 0
0.000861629 -0.000411652 0
0.00207835 -0.00149487 0
0.00097983 -0.00146172 0
-0.000290454 -0.00102869 0
-0.000281984 -0.00102973 0
-0.000290842 -0.00080016 0
-0.00028333 -0.000803937 0
-0.000290842 -0.00080016 0
-0.00028333 -0.000803937 0
-0.000295355 -0.00128709 0
-0.000288716 -0.00129033 0
-0.000295355 -0.00128709 0
-0.000288716 -0.00129033 0
-0.00030345 -0.00114681 0
-0.000296456 -0.00115152 0
-0.00030345 -0.00114681 0
-0.000296456 -0.00115152 0
-0.000313369 -0.00153592 0
-0.000308587 -0.00154178 0
-0.000313369 -0.00153592 0
-0.000308587 -0.00154178 0
-0.00032687 -0.00145147 0
-0.000321554 -0.00145786 0
-0.00032687 -0.00145147 0
-0.000321554 -0.00145786 0
-0.00034077 -0.00175373 0
-0.000337035 -0.00176141 0
-0.000358531 -0.00170318 0
-0.00034077 -0.00175373 0
-0.00035467 -0.00171169 0
-0.000337035 -0.00176141 0
-0.000358531 -0.00170318 0
-0.00035467 -0.00171169 0
-0.000378103 -0.00192959 0
-0.000375117 -0.00193908 0
-0.000378103 -0.00192959 0
-0.000375117 -0.00193908 0
-0.000401674 -0.0018994 0
-0.000399164 -0.00191041 0
-0.000401674 -0.0018994 0
-0.000399164 -0.00191041 0
-0.00042941 -0.00206054 0
-0.000428334 -0.0020727 0
-0.00042941 -0.00206054 0
-0.000428334 -0.0020727 0
-0.000462104 -0.00204322 0
-0.000463058 -0.00205754 0
-0.000462104 -0.00204322 0
-0.000463058 -0.00205754 0
-0.000501712 -0.00214634 0
-0.000507981 -0.00216276 0
-0.000501712 -0.00214634 0
-0.000507981 -0.00216276 0
-0.000547308 -0.00213458 0
-0.000561307 -0.00215324 0
-0.000547308 -0.00213458 0
-0.000561307 -0.00215324 0
-0.000599677 -0.00217854 0
-0.000626719 -0.00219941 0
-0.000599677 -0.00217854 0
-0.000626719 -0.00219941 0
-0.000653811 -0.00216091 0
-0.000698386 -0.00218216 0
-0.000653811 -0.00216091 0
-0.000698386 -0.00218216 0
-0.000704462 -0.00213592 0
-0.000770393 -0.00215533 0
-0.000704462 -0.00213592 0
-0.000770393 -0.00215533 0
-0.000739671 -0.00210367 0
-0.000826574 -0.00211657 0
-0.000739671 -0.00210367 0
-0.000826574 -0.00211657 0
-0.000749032 -0.00200772 0
-0.000849321 -0.0020101 0
-0.000749032 -0.00200772 0
-0.000849321 -0.0020101 0
-0.000724707 -0.00198198 0
-0.000823395 -0.00197114 0
-0.000724707 -0.00198198 0
-0.000823395 -0.00197114 0
-0.000669129 -0.00184377 0
-0.000751583 -0.00182407 0
-0.000669129 -0.00184377 0
-0.000751583 -0.00182407 0
-0.000593819 -0.00187502 0
-0.000653381 -0.00185041 0
-0.000593819 -0.00187502 0
-0.000653381 -0.00185041 0
-0.000510675 -0.00171527 0
-0.000547433 -0.00169178 0
-0.000510675 -0.00171527 0
-0.000547433 -0.00169178 0
-0.000434943 -0.00183033 0
-0.000452509 -0.00180903 0
-0.000434943 -0.00183033 0
-0.000452509 -0.00180903 0
-0.000364764 -0.00162216 0
-0.000368702 -0.0016072 0
-0.000364764 -0.00162216 0
-0.000368702 -0.0016072 0
-0.00031634 -0.00182348 0
-0.000313398 -0.00181052 0
-0.00031634 -0.00182348 0
-0.000313398 -0.00181052 0
-0.000267469 -0.00151311 0
-0.000258075 -0.00150328 0
-0.000267469 -0.00151311 0
-0.000258075 -0.00150328 0
-0.00023493 -0.00182509 0
-0.000224257 -0.00181737 0
-0.00023493 -0.00182509 0
-0.000224257 -0.00181737 0
-0.000200048 -0.00134094 0
-0.000185252 -0.00133677 0
-0.000200048 -0.00134094 0
-0.000185252 -0.00133677 0
-0.000190787 -0.00181347 0
-0.000175731 -0.00181298 0
-0.000190787 -0.00181347 0
-0.000175731 -0.00181298 0
-0.000183049 -0.00106302 0
-0.000167414 -0.00106216 0
-0.000183049 -0.00106302 0
-0.000167414 -0.00106216 0
-0.000185225 -0.00179464 0
-0.000168153 -0.00179561 0
0.370247 -0.116155 0
0.229682 -0.0953473 0
0.256485 0.0345407 0
0.204127 -0.0196024 0
0.229682 -0.0953473 0
0.156543 -0.0912556 0
0.204127 -0.0196024 0
0.15 -0.036574 0
0.156543 -0.0912556 0
0.114712 -0.0746448 0
0.15 -0.036574 0
0.115844 -0.0426684 0
0.114712 -0.0746448 0
0.0887736 -0.0637147 0
0.115844 -0.0426684 0
0.0902568 -0.0408664 0
0.0713007 -0.0538431 0
0.0736963 -0.0387076 0
0.0887736 -0.0637147 0
0.0902568 -0.0408664 0
0.0591503 -0.0470373 0
0.0609779 -0.0354602 0
0.0713007 -0.0538431 0
0.0736963 -0.0387076 0
0.0591503 -0.0470373 0
0.0503004 -0.0413482 0
0.0609779 -0.0354602 0
0.0520529 -0.0327984 0
0.0503004 -0.0413482 0
0.0436779 -0.0370703 0
0.0520529 -0.0327984 0
0.0450016 -0.0301642 0
0.0436779 -0.0370703 0
0.0385684 -0.0335016 0
0.0450016 -0.0301642 0
0.0397012 -0.0279857 0
0.0385684 -0.0335016 0
0.0344931 -0.0306126 0
0.0397012 -0.0279857 0
0.0353651 -0.0259425 0
0.0344931 -0.0306126 0
0.0311361 -0.0280933 0
0.0353651 -0.0259425 0
0.0318504 -0.0241397 0
0.0311361 -0.0280933 0
0.028273 -0.0258962 0
0.0318504 -0.0241397 0
0.0287909 -0.0224418 0
0.028273 -0.0258962 0
0.0257226 -0.0238671 0
0.0287909 -0.0224418 0
0.026111 -0.0208421 0
0.0234123 -0.0219827 0
0.0236647 -0.0192531 0
0.0257226 -0.0238671 0
0.026111 -0.0208421 0
0.0211928 -0.0201468 0
0.0213851 -0.0176891 0
0.0234123 -0.0219827 0
0.0236647 -0.0192531 0
0.0211928 -0.0201468 0
0.0191204 -0.0183781 0
0.0213851 -0.0176891 0
0.0192244 -0.0161366 0
0.0170882 -0.0166206 0
0.0170793 -0.0146441 0
0.0191204 -0.0183781 0
0.0192244 -0.0161366 0
0.0152151 -0.0149369 0
0.0150837 -0.0131555 0
0.0170882 -0.0166206 0
0.0170793 -0.0146441 0
0.0152151 -0.0149369 0
0.013318 -0.0132742 0
0.0150837 -0.0131555 0
0.0130542 -0.0116057 0
0.0115643 -0.0117412 0
0.0112279 -0.0101209 0
0.013318 -0.0132742 0
0.0130542 -0.0116057 0
0.0115643 -0.0117412 0
0.00982034 -0.0101387 0
0.0112279 -0.0101209 0
0.00936424 -0.00877932 0
0.00982034 -0.0101387 0
0.00831394 -0.00869699 0
0.00936424 -0.00877932 0
0.00795518 -0.00735748 0
0.00831394 -0.00869699 0
0.00676955 -0.00699499 0
0.00795518 -0.00735748 0
0.00623759 -0.00596677 0
0.00676955 -0.00699499 0
0.00556605 -0.00568914 0
0.00623759 -0.00596677 0
0.00525803 -0.00453463 0
0.00409407 -0.00244025 0
0.00337591 -0.00208217 0
0.00305779 -0.00247685 0
0.0025337 -0.00172871 0
0.00305779 -0.00247685 0
0.0025337 -0.00172871 0
0.00222487 -0.00213968 0
0.00207835 -0.00149487 0
0.00222487 -0.00213968 0
0.00207835 -0.00149487 0
0.000881228 -0.00162734 0
0.00097983 -0.00146172 0
0.00257471 -0.00307107 0
0.00222487 -0.00213968 0
0.00119019 -0.00246518 0
0.000881228 -0.00162734 0
0.00288346 -0.00286743 0
0.00257471 -0.00307107 0
0.00143272 -0.00238895 0
0.00119019 -0.00246518 0
0.0033153 -0.0031404 0
0.00288346 -0.00286743 0
0.00173666 -0.00272501 0
0.00143272 -0.00238895 0
0.00397416 -0.00293945 0
0.0033153 -0.0031404 0
0.00233351 -0.00199703 0
0.00173666 -0.00272501 0
0.00490577 -0.00318387 0
0.00397416 -0.00293945 0
0.00356774 -0.00180058 0
0.00233351 -0.00199703 0
0.00588904 -0.00329627 0
0.00490577 -0.00318387 0
0.00485079 -0.00216224 0
0.00356774 -0.00180058 0
0.00588904 -0.00329627 0
0.00485079 -0.00216224 0
0.0068656 -0.00378071 0
0.00595993 -0.00316917 0
0.00485079 -0.00216224 0