# vtk DataFile Version 3.0
#This file was generated by the deal.II library on 2016/12/20 at 10:57:09
ASCII
DATASET UNSTRUCTURED_GRID

POINTS 7504 double
0.12 -0.5 0
0.15 -0.5 0
0.119014 -0.4708 0
0.15 -0.471429 0
0.11755 -0.441479 0
0.119014 -0.4708 0
0.15 -0.442857 0
0.15 -0.471429 0
0.117242 -0.412206 0
0.11755 -0.441479 0
0.15 -0.414286 0
0.15 -0.442857 0
0.118129 -0.383064 0
0.117242 -0.412206 0
0.15 -0.385714 0
0.15 -0.414286 0
0.12021 -0.354337 0
0.118129 -0.383064 0
0.15 -0.357143 0
0.15 -0.385714 0
0.121793 -0.32584 0
0.12021 -0.354337 0
0.15 -0.328571 0
0.15 -0.357143 0
0.122717 -0.296869 0
0.121793 -0.32584 0
0.15 -0.3 0
0.15 -0.328571 0
0.123759 -0.266752 0
0.122717 -0.296869 0
0.153091 -0.267708 0
0.15 -0.3 0
0.18456 -0.26795 0
0.153091 -0.267708 0
0.183333 -0.3 0
0.15 -0.3 0
0.216606 -0.268111 0
0.18456 -0.26795 0
0.216667 -0.3 0
0.183333 -0.3 0
0.24835 -0.26841 0
0.216606 -0.268111 0
0.25 -0.3 0
0.216667 -0.3 0
0.278782 -0.268564 0
0.24835 -0.26841 0
0.279437 -0.298917 0
0.25 -0.3 0
0.279638 -0.328111 0
0.279437 -0.298917 0
0.25 -0.328571 0
0.25 -0.3 0
0.27971 -0.356801 0
0.279638 -0.328111 0
0.25 -0.357143 0
0.25 -0.328571 0
0.279677 -0.385395 0
0.27971 -0.356801 0
0.25 -0.385714 0
0.25 -0.357143 0
0.279641 -0.413938 0
0.279677 -0.385395 0
0.25 -0.414286 0
0.25 -0.385714 0
0.279666 -0.442534 0
0.279641 -0.413938 0
0.25 -0.442857 0
0.25 -0.414286 0
0.279811 -0.471266 0
0.279666 -0.442534 0
0.25 -0.471429 0
0.25 -0.442857 0
0.28 -0.5 0
0.279811 -0.471266 0
0.25 -0.5 0
0.25 -0.471429 0
0.970149 0.5 0
0.970096 0.46978 0
1 0.5 0
1 0.469697 0
0.940299 0.5 0
0.940231 0.46984 0
0.970149 0.5 0
0.970096 0.46978 0
0.910448 0.5 0
0.910371 0.469856 0
0.940299 0.5 0
0.940231 0.46984 0
0.880597 0.5 0
0.880527 0.469909 0
0.910448 0.5 0
0.910371 0.469856 0
0.850746 0.5 0
0.850684 0.469926 0
0.880597 0.5 0
0.880527 0.469909 0
0.820896 0.5 0
0.820842 0.469978 0
0.850746 0.5 0
0.850684 0.469926 0
0.791045 0.5 0
0.791001 0.470016 0
0.820896 0.5 0
0.820842 0.469978 0
0.761194 0.5 0
0.761159 0.470055 0
0.791045 0.5 0
0.791001 0.470016 0
0.731343 0.5 0
0.731316 0.470091 0
0.761194 0.5 0
0.761159 0.470055 0
0.701493 0.5 0
0.701472 0.470118 0
0.731343 0.5 0
0.731316 0.470091 0
0.671642 0.5 0
0.671627 0.470134 0
0.701493 0.5 0
0.701472 0.470118 0
0.641791 0.5 0
0.64178 0.470142 0
0.671642 0.5 0
0.671627 0.470134 0
0.641791 0.5 0
0.61194 0.5 0
0.64178 0.470142 0
0.611934 0.470065 0
0.58209 0.5 0
0.582089 0.470002 0
0.61194 0.5 0
0.611934 0.470065 0
0.552239 0.5 0
0.552248 0.469853 0
0.58209 0.5 0
0.582089 0.470002 0
0.522388 0.5 0
0.522413 0.469718 0
0.552239 0.5 0
0.552248 0.469853 0
0.492537 0.5 0
0.492577 0.469656 0
0.522388 0.5 0
0.522413 0.469718 0
0.462687 0.5 0
0.462743 0.469571 0
0.492537 0.5 0
0.492577 0.469656 0
0.432836 0.5 0
0.432895 0.46963 0
0.462687 0.5 0
0.462743 0.469571 0
0.402985 0.5 0
0.403046 0.469669 0
0.432836 0.5 0
0.432895 0.46963 0
0.373134 0.5 0
0.373191 0.469745 0
0.402985 0.5 0
0.403046 0.469669 0
0.343284 0.5 0
0.343335 0.469723 0
0.373134 0.5 0
0.373191 0.469745 0
0.313433 0.5 0
0.313478 0.469741 0
0.343284 0.5 0
0.343335 0.469723 0
0.283582 0.5 0
0.283622 0.469783 0
0.313433 0.5 0
0.313478 0.469741 0
0.253731 0.5 0
0.253768 0.469742 0
0.283582 0.5 0
0.283622 0.469783 0
0.223881 0.5 0
0.223918 0.469737 0
0.253731 0.5 0
0.253768 0.469742 0
0.19403 0.5 0
0.194064 0.46981 0
0.223881 0.5 0
0.223918 0.469737 0
0.164179 0.5 0
0.16421 0.469881 0
0.19403 0.5 0
0.194064 0.46981 0
0.134328 0.5 0
0.134355 0.46994 0
0.164179 0.5 0
0.16421 0.469881 0
0.104478 0.5 0
0.1045 0.469997 0
0.134328 0.5 0
0.134355 0.46994 0
0.074627 0.5 0
0.074645 0.470051 0
0.104478 0.5 0
0.1045 0.469997 0
0.044776 0.5 0
0.04479 0.470093 0
0.074627 0.5 0
0.074645 0.470051 0
0.014925 0.5 0
0.014935 0.47012 0
0.044776 0.5 0
0.04479 0.470093 0
-0.014925 0.5 0
-0.014918 0.470135 0
0.014925 0.5 0
0.014935 0.47012 0
-0.044776 0.5 0
-0.044771 0.470143 0
-0.014925 0.5 0
-0.014918 0.470135 0
-0.074627 0.5 0
-0.074623 0.470146 0
-0.044776 0.5 0
-0.044771 0.470143 0
-0.104478 0.5 0
-0.104496 0.469979 0
-0.074627 0.5 0
-0.074623 0.470146 0
-0.134328 0.5 0
-0.134359 0.469935 0
-0.104478 0.5 0
-0.104496 0.469979 0
-0.164179 0.5 0
-0.164225 0.469839 0
-0.134328 0.5 0
-0.134359 0.469935 0
-0.164179 0.5 0
-0.19403 0.5 0
-0.164225 0.469839 0
-0.194083 0.469797 0
-0.223881 0.5 0
-0.22394 0.469753 0
-0.19403 0.5 0
-0.194083 0.469797 0
-0.253731 0.5 0
-0.253798 0.469819 0
-0.223881 0.5 0
-0.22394 0.469753 0
-0.283582 0.5 0
-0.283647 0.470019 0
-0.253731 0.5 0
-0.253798 0.469819 0
-0.313433 0.5 0
-0.313491 0.470151 0
-0.283582 0.5 0
-0.283647 0.470019 0
-0.343284 0.5 0
-0.343348 0.470381 0
-0.313433 0.5 0
-0.313491 0.470151 0
-0.343284 0.5 0
-0.373134 0.5 0
-0.343348 0.470381 0
-0.373195 0.470395 0
-0.373134 0.5 0
-0.402985 0.5 0
-0.373195 0.470395 0
-0.403049 0.470404 0
-0.432836 0.5 0
-0.432937 0.470297 0
-0.402985 0.5 0
-0.403049 0.470404 0
-0.462687 0.5 0
-0.462848 0.469995 0
-0.432836 0.5 0
-0.432937 0.470297 0
-0.492537 0.5 0
-0.492807 0.469765 0
-0.462687 0.5 0
-0.462848 0.469995 0
-0.522388 0.5 0
-0.52276 0.46958 0
-0.492537 0.5 0
-0.492807 0.469765 0
-0.552239 0.5 0
-0.55273 0.469652 0
-0.522388 0.5 0
-0.52276 0.46958 0
-0.58209 0.5 0
-0.582662 0.469731 0
-0.552239 0.5 0
-0.55273 0.469652 0
-0.61194 0.5 0
-0.612594 0.469999 0
-0.58209 0.5 0
-0.582662 0.469731 0
-0.641791 0.5 0
-0.642647 0.470419 0
-0.61194 0.5 0
-0.612594 0.469999 0
-0.671642 0.5 0
-0.672638 0.470543 0
-0.641791 0.5 0
-0.642647 0.470419 0
-0.701493 0.5 0
-0.702968 0.4698 0
-0.671642 0.5 0
-0.672638 0.470543 0
-0.701493 0.5 0
-0.731343 0.5 0
-0.702968 0.4698 0
-0.733232 0.468149 0
-0.731343 0.5 0
-0.761194 0.5 0
-0.733232 0.468149 0
-0.765399 0.466448 0
-0.791045 0.5 0
-0.795702 0.469563 0
-0.761194 0.5 0
-0.765399 0.466448 0
-0.820896 0.5 0
-0.822797 0.47207 0
-0.791045 0.5 0
-0.795702 0.469563 0
0.31 -0.5 0
0.309694 -0.471123 0
0.28 -0.5 0
0.279811 -0.471266 0
0.31 -0.5 0
0.34 -0.5 0
0.309694 -0.471123 0
0.339686 -0.471033 0
0.37 -0.5 0
0.369721 -0.471055 0
0.34 -0.5 0
0.339686 -0.471033 0
0.37 -0.5 0
0.4 -0.5 0
0.369721 -0.471055 0
0.399756 -0.470957 0
0.4 -0.5 0
0.43 -0.5 0
0.399756 -0.470957 0
0.429805 -0.470822 0
0.43 -0.5 0
0.46 -0.5 0
0.429805 -0.470822 0
0.459835 -0.470712 0
0.46 -0.5 0
0.49 -0.5 0
0.459835 -0.470712 0
0.489873 -0.470554 0
0.49 -0.5 0
0.52 -0.5 0
0.489873 -0.470554 0
0.519906 -0.470379 0
0.52 -0.5 0
0.55 -0.5 0
0.519906 -0.470379 0
0.54993 -0.470248 0
0.55 -0.5 0
0.58 -0.5 0
0.54993 -0.470248 0
0.579948 -0.470155 0
0.58 -0.5 0
0.61 -0.5 0
0.579948 -0.470155 0
0.609962 -0.470091 0
0.61 -0.5 0
0.64 -0.5 0
0.609962 -0.470091 0
0.639972 -0.47005 0
0.64 -0.5 0
0.67 -0.5 0
0.639972 -0.47005 0
0.66998 -0.470026 0
0.67 -0.5 0
0.7 -0.5 0
0.66998 -0.470026 0
0.699986 -0.470013 0
0.7 -0.5 0
0.73 -0.5 0
0.699986 -0.470013 0
0.72999 -0.470006 0
0.73 -0.5 0
0.76 -0.5 0
0.72999 -0.470006 0
0.759994 -0.470003 0
0.76 -0.5 0
0.79 -0.5 0
0.759994 -0.470003 0
0.78998 -0.469916 0
0.79 -0.5 0
0.82 -0.5 0
0.78998 -0.469916 0
0.819956 -0.469877 0
0.82 -0.5 0
0.85 -0.5 0
0.819956 -0.469877 0
0.849929 -0.469833 0
0.85 -0.5 0
0.88 -0.5 0
0.849929 -0.469833 0
0.879924 -0.469805 0
0.88 -0.5 0
0.91 -0.5 0
0.879924 -0.469805 0
0.909913 -0.469792 0
0.91 -0.5 0
0.94 -0.5 0
0.909913 -0.469792 0
0.939922 -0.469775 0
0.94 -0.5 0
0.97 -0.5 0
0.939922 -0.469775 0
0.969956 -0.46974 0
0.97 -0.5 0
1 -0.5 0
0.969956 -0.46974 0
1 -0.469697 0
-0.531915 0.031915 0
-0.510638 0.010638 0
-0.510492 0.053733 0
-0.489127 0.032461 0
-0.510638 0.010638 0
-0.489362 -0.010638 0
-0.489127 0.032461 0
-0.467791 0.011178 0
-0.489362 -0.010638 0
-0.468085 -0.031915 0
-0.467791 0.011178 0
-0.446536 -0.010172 0
-0.446809 -0.053191 0
-0.42524 -0.031466 0
-0.468085 -0.031915 0
-0.446536 -0.010172 0
-0.425532 -0.074468 0
-0.404012 -0.052824 0
-0.446809 -0.053191 0
-0.42524 -0.031466 0
-0.425532 -0.074468 0
-0.404255 -0.095745 0
-0.404012 -0.052824 0
-0.382783 -0.074175 0
-0.404255 -0.095745 0
-0.382979 -0.117021 0
-0.382783 -0.074175 0
-0.361545 -0.095511 0
-0.382979 -0.117021 0
-0.361702 -0.138298 0
-0.361545 -0.095511 0
-0.340288 -0.116831 0
-0.361702 -0.138298 0
-0.340426 -0.159574 0
-0.340288 -0.116831 0
-0.319034 -0.138159 0
-0.340426 -0.159574 0
-0.319149 -0.180851 0
-0.319034 -0.138159 0
-0.297766 -0.159484 0
-0.319149 -0.180851 0
-0.297872 -0.202128 0
-0.297766 -0.159484 0
-0.276489 -0.180797 0
-0.297872 -0.202128 0
-0.276596 -0.223404 0
-0.276489 -0.180797 0
-0.255087 -0.202105 0
-0.255319 -0.244681 0
-0.233674 -0.223466 0
-0.276596 -0.223404 0
-0.255087 -0.202105 0
-0.234043 -0.265957 0
-0.212119 -0.244916 0
-0.255319 -0.244681 0
-0.233674 -0.223466 0
-0.234043 -0.265957 0
-0.212766 -0.287234 0
-0.212119 -0.244916 0
-0.190657 -0.266392 0
-0.191489 -0.308511 0
-0.169261 -0.287934 0
-0.212766 -0.287234 0
-0.190657 -0.266392 0
-0.170213 -0.329787 0
-0.147854 -0.309624 0
-0.191489 -0.308511 0
-0.169261 -0.287934 0
-0.170213 -0.329787 0
-0.148936 -0.351064 0
-0.147854 -0.309624 0
-0.126431 -0.331364 0
-0.12766 -0.37234 0
-0.105256 -0.353368 0
-0.148936 -0.351064 0
-0.126431 -0.331364 0
-0.12766 -0.37234 0
-0.106383 -0.393617 0
-0.105256 -0.353368 0
-0.083924 -0.375263 0
-0.106383 -0.393617 0
-0.085106 -0.414894 0
-0.083924 -0.375263 0
-0.062097 -0.396824 0
-0.085106 -0.414894 0
-0.06383 -0.43617 0
-0.062097 -0.396824 0
-0.040132 -0.418076 0
-0.06383 -0.43617 0
-0.042553 -0.457447 0
-0.040132 -0.418076 0
-0.019646 -0.439891 0
-0.042553 -0.457447 0
-0.021277 -0.478723 0
-0.019646 -0.439891 0
-0.002475 -0.461393 0
-0.021277 -0.478723 0
0 -0.5 0
-0.002475 -0.461393 0
0.009599 -0.478226 0
0 -0.5 0
0.03 -0.5 0
0.009599 -0.478226 0
0.029922 -0.474701 0
0.03 -0.5 0
0.06 -0.5 0
0.029922 -0.474701 0
0.057397 -0.471689 0
0.06 -0.5 0
0.09 -0.5 0
0.057397 -0.471689 0
0.08796 -0.470463 0
0.09 -0.5 0
0.12 -0.5 0
0.08796 -0.470463 0
0.119014 -0.4708 0
0.969956 -0.46974 0
1 -0.469697 0
0.969923 -0.439465 0
1 -0.439394 0
0.969923 -0.439465 0
1 -0.439394 0
0.969894 -0.409159 0
1 -0.409091 0
0.969894 -0.409159 0
1 -0.409091 0
[...]
POINT_DATA 7504
VECTORS momentum double
0.00115571 -0.000402353 0
0.000116781 -0.000388687 0
0.00131368 -0.00159722 0
0.000109024 -0.00153007 0
0.00123509 -0.00184339 0
0.00131368 -0.00159722 0
0.000121844 -0.00169542 0
0.000109024 -0.00153007 0
0.00162996 -0.00273969 0
0.00123509 -0.00184339 0
9.00365e-05 -0.00278508 0
0.000121844 -0.00169542 0
0.00188337 -0.00260463 0
0.00162996 -0.00273969 0
-1.50599e-05 -0.00241506 0
9.00365e-05 -0.00278508 0
0.00234584 -0.00280413 0
0.00188337 -0.00260463 0
0.000245104 -0.00286328 0
-1.50599e-05 -0.00241506 0
0.00296695 -0.00172918 0
0.00234584 -0.00280413 0
-0.000790525 -0.00104434 0
0.000245104 -0.00286328 0
0.00517573 -0.000940391 0
0.00296695 -0.00172918 0
0.00358769 0.000561697 0
-0.000790525 -0.00104434 0
0.00732868 -0.00189365 0
0.00517573 -0.000940391 0
0.00806534 -0.00118491 0
0.00358769 0.000561697 0
0.00662351 -0.00343949 0
0.00806534 -0.00118491 0
0.00708984 -0.00151786 0
0.00358769 0.000561697 0
0.00642741 -0.00102608 0
0.00662351 -0.00343949 0
0.00647819 0.000733769 0
0.00708984 -0.00151786 0
0.00772299 -0.00344799 0
0.00642741 -0.00102608 0
0.00345899 -0.00303544 0
0.00647819 0.000733769 0
0.00480018 -0.00387393 0
0.00772299 -0.00344799 0
0.00267137 -0.00610503 0
0.00345899 -0.00303544 0
5.25293e-06 -0.00374708 0
0.00267137 -0.00610503 0
-0.00113098 -0.00458338 0
0.00345899 -0.00303544 0
0.000595172 -0.00310348 0
5.25293e-06 -0.00374708 0
0.000336239 -0.00232744 0
-0.00113098 -0.00458338 0
4.58024e-05 -0.00214606 0
0.000595172 -0.00310348 0
-0.000148619 -0.00263854 0
0.000336239 -0.00232744 0
0.000251245 -0.00187645 0
4.58024e-05 -0.00214606 0
7.42743e-05 -0.0016204 0
-0.000148619 -0.00263854 0
1.1506e-05 -0.0012082 0
0.000251245 -0.00187645 0
-3.93539e-05 -0.00137682 0
7.42743e-05 -0.0016204 0
9.94037e-05 -0.00112509 0
1.1506e-05 -0.0012082 0
2.31614e-05 -0.00104161 0
-3.93539e-05 -0.00137682 0
3.51525e-05 -0.000455884 0
9.94037e-05 -0.00112509 0
-1.34432e-05 -0.000514553 0
2.31614e-05 -0.00104161 0
-0.000227121 -0.000651065 0
-0.000218869 -0.00179204 0
-0.000211542 -0.000651268 0
-0.000200481 -0.00179316 0
-0.000241751 -0.000651592 0
-0.000236659 -0.00179336 0
-0.000227121 -0.000651065 0
-0.000218869 -0.00179204 0
-0.000251154 -0.000651218 0
-0.000245846 -0.0017955 0
-0.000241751 -0.000651592 0
-0.000236659 -0.00179336 0
-0.000259074 -0.000650343 0
-0.000254558 -0.0017968 0
-0.000251154 -0.000651218 0
-0.000245846 -0.0017955 0
-0.000262048 -0.000649628 0
-0.000256981 -0.00179828 0
-0.000259074 -0.000650343 0
-0.000254558 -0.0017968 0
-0.000262879 -0.000648191 0
-0.00025771 -0.00179927 0
-0.000262048 -0.000649628 0
-0.000256981 -0.00179828 0
-0.000257911 -0.000647418 0
-0.000253496 -0.00180047 0
-0.000262879 -0.000648191 0
-0.00025771 -0.00179927 0
-0.000250326 -0.000645822 0
-0.000246071 -0.0018024 0
-0.000257911 -0.000647418 0
-0.000253496 -0.00180047 0
-0.000236152 -0.000644543 0
-0.000235156 -0.00180445 0
-0.000250326 -0.000645822 0
-0.000246071 -0.0018024 0
-0.000218462 -0.000643691 0
-0.000219634 -0.00180688 0
-0.000236152 -0.000644543 0
-0.000235156 -0.00180445 0
-0.000194155 -0.000642354 0
-0.000199813 -0.00180875 0
-0.000218462 -0.000643691 0
-0.000219634 -0.00180688 0
-0.000164727 -0.000641513 0
-0.000179364 -0.00181112 0
-0.000194155 -0.000642354 0
-0.000199813 -0.00180875 0
-0.000164727 -0.000641513 0
-0.00013359 -0.000641918 0
-0.000179364 -0.00181112 0
-0.000152942 -0.00181347 0
-9.71164e-05 -0.000642064 0
-0.000123049 -0.00181632 0
-0.00013359 -0.000641918 0
-0.000152942 -0.00181347 0
-5.71032e-05 -0.000644483 0
-8.60609e-05 -0.0018167 0
-9.71164e-05 -0.000642064 0
-0.000123049 -0.00181632 0
-1.38007e-05 -0.000646749 0
-3.40207e-05 -0.0018122 0
-5.71032e-05 -0.000644483 0
-8.60609e-05 -0.0018167 0
4.49762e-05 -0.000647506 0
3.09864e-05 -0.00180129 0
-1.38007e-05 -0.000646749 0
-3.40207e-05 -0.0018122 0
0.000115162 -0.00064887 0
0.000112878 -0.00178573 0
4.49762e-05 -0.000647506 0
3.09864e-05 -0.00180129 0
0.000204937 -0.000648763 0
0.000218475 -0.00176618 0
0.000115162 -0.00064887 0
0.000112878 -0.00178573 0
0.000333301 -0.000647063 0
0.000358433 -0.0017432 0
0.000204937 -0.000648763 0
0.000218475 -0.00176618 0
0.000513659 -0.00064445 0
0.000542939 -0.00171915 0
0.000333301 -0.000647063 0
0.000358433 -0.0017432 0
0.000758213 -0.000643523 0
0.000791091 -0.00168919 0
0.000513659 -0.00064445 0
0.000542939 -0.00171915 0
0.00107151 -0.000642229 0
0.00111561 -0.0016566 0
0.000758213 -0.000643523 0
0.000791091 -0.00168919 0
0.00147106 -0.00064124 0
0.0015218 -0.00161275 0
0.00107151 -0.000642229 0
0.00111561 -0.0016566 0
0.00195946 -0.000641069 0
0.00201779 -0.00155656 0
0.00147106 -0.00064124 0
0.0015218 -0.00161275 0
0.0025286 -0.000642934 0
0.00260487 -0.00148822 0
0.00195946 -0.000641069 0
0.00201779 -0.00155656 0
0.0031767 -0.000645102 0
0.00328176 -0.00141089 0
0.0025286 -0.000642934 0
0.00260487 -0.00148822 0
0.00389923 -0.00064224 0
0.0040331 -0.00132834 0
0.0031767 -0.000645102 0
0.00328176 -0.00141089 0
0.00467306 -0.00063746 0
0.00483028 -0.00123818 0
0.00389923 -0.00064224 0
0.0040331 -0.00132834 0
0.00545454 -0.000631192 0
0.00563372 -0.00113826 0
0.00467306 -0.00063746 0
0.00483028 -0.00123818 0
0.00619576 -0.000623845 0
0.00639316 -0.0010281 0
0.00545454 -0.000631192 0
0.00563372 -0.00113826 0
0.00682039 -0.000616617 0
0.00702827 -0.000903469 0
0.00619576 -0.000623845 0
0.00639316 -0.0010281 0
0.00725982 -0.000612147 0
0.00747397 -0.000758798 0
0.00682039 -0.000616617 0
0.00702827 -0.000903469 0
0.00739555 -0.00060812 0
0.00761798 -0.000590462 0
0.00725982 -0.000612147 0
0.00747397 -0.000758798 0
0.0071602 -0.000602919 0
0.00738248 -0.000385036 0
0.00739555 -0.00060812 0
0.00761798 -0.000590462 0
0.0063911 -0.000597561 0
0.00660159 -0.000132256 0
0.0071602 -0.000602919 0
0.00738248 -0.000385036 0
0.00502574 -0.000591636 0
0.00523007 0.000192825 0
0.0063911 -0.000597561 0
0.00660159 -0.000132256 0
0.00286925 -0.000585485 0
0.00306295 0.000588083 0
0.00502574 -0.000591636 0
0.00523007 0.000192825 0
-6.49193e-05 -0.000577772 0
0.00011062 0.00107823 0
0.00286925 -0.000585485 0
0.00306295 0.000588083 0
-6.49193e-05 -0.000577772 0
-0.00404118 -0.000567891 0
0.00011062 0.00107823 0
-0.00388002 0.00166398 0
-0.00895055 -0.000549036 0
-0.00880749 0.00236446 0
-0.00404118 -0.000567891 0
-0.00388002 0.00166398 0
-0.0151612 -0.000526408 0
-0.0150533 0.00319817 0
-0.00895055 -0.000549036 0
-0.00880749 0.00236446 0
-0.0224854 -0.000492008 0
-0.0224426 0.0041886 0
-0.0151612 -0.000526408 0
-0.0150533 0.00319817 0
-0.0314901 -0.000453807 0
-0.0315419 0.00533096 0
-0.0224854 -0.000492008 0
-0.0224426 0.0041886 0
-0.0418303 -0.000407404 0
-0.0420482 0.0066508 0
-0.0314901 -0.000453807 0
-0.0315419 0.00533096 0
-0.0418303 -0.000407404 0
-0.0543286 -0.000358806 0
-0.0420482 0.0066508 0
-0.0547714 0.00817961 0
-0.0543286 -0.000358806 0
-0.0684739 -0.000314679 0
-0.0547714 0.00817961 0
-0.069197 0.00991985 0
-0.0852897 -0.00025792 0
-0.0863534 0.0117651 0
-0.0684739 -0.000314679 0
-0.069197 0.00991985 0
-0.103988 -0.000216432 0
-0.105449 0.0138547 0
-0.0852897 -0.00025792 0
-0.0863534 0.0117651 0
-0.125583 -0.000161168 0
-0.127598 0.0156979 0
-0.103988 -0.000216432 0
-0.105449 0.0138547 0
-0.148668 -0.000174721 0
-0.15134 0.0172574 0
-0.125583 -0.000161168 0
-0.127598 0.0156979 0
-0.173923 -0.000169431 0
-0.177138 0.017986 0
-0.148668 -0.000174721 0
-0.15134 0.0172574 0
-0.199478 -0.000183817 0
-0.203156 0.0186942 0
-0.173923 -0.000169431 0
-0.177138 0.017986 0
-0.226305 -0.000179712 0
-0.230293 0.0192454 0
-0.199478 -0.000183817 0
-0.203156 0.0186942 0
-0.252916 -0.000401985 0
-0.257143 0.0211202 0
-0.226305 -0.000179712 0
-0.230293 0.0192454 0
-0.281123 -4.61498e-05 0
-0.28364 0.0225764 0
-0.252916 -0.000401985 0
-0.257143 0.0211202 0
-0.307634 0.000280693 0
-0.311678 0.0272116 0
-0.281123 -4.61498e-05 0
-0.28364 0.0225764 0
-0.307634 0.000280693 0
-0.33663 0.000971771 0
-0.311678 0.0272116 0
-0.335197 0.0273526 0
-0.33663 0.000971771 0
-0.350335 0.000194613 0
-0.335197 0.0273526 0
-0.359298 0.0181925 0
-0.34736 -0.000992171 0
-0.355667 -0.00681972 0
-0.350335 0.000194613 0
-0.359298 0.0181925 0
-0.325292 0.000197132 0
-0.319982 -0.0191245 0
-0.34736 -0.000992171 0
-0.355667 -0.00681972 0
9.18412e-05 -0.000442444 0
0.000123706 -0.00112112 0
3.51525e-05 -0.000455884 0
9.94037e-05 -0.00112509 0
9.18412e-05 -0.000442444 0
0.000107069 -0.000418323 0
0.000123706 -0.00112112 0
0.000136261 -0.00112455 0
0.000107325 -0.000421657 0
0.000119261 -0.0010842 0
0.000107069 -0.000418323 0
0.000136261 -0.00112455 0
0.000107325 -0.000421657 0
8.08022e-05 -0.000413982 0
0.000119261 -0.0010842 0
9.02454e-05 -0.00106581 0
8.08022e-05 -0.000413982 0
4.62636e-05 -0.000419319 0
9.02454e-05 -0.00106581 0
4.57412e-05 -0.00103598 0
4.62636e-05 -0.000419319 0
-5.34204e-06 -0.000416546 0
4.57412e-05 -0.00103598 0
-1.84356e-06 -0.00102473 0
-5.34204e-06 -0.000416546 0
-5.24915e-05 -0.000418634 0
-1.84356e-06 -0.00102473 0
-5.70475e-05 -0.00101045 0
-5.24915e-05 -0.000418634 0
-0.000105141 -0.000418811 0
-5.70475e-05 -0.00101045 0
-0.000111944 -0.00100616 0
-0.000105141 -0.000418811 0
-0.00015357 -0.000421927 0
-0.000111944 -0.00100616 0
-0.000160785 -0.000999359 0
-0.00015357 -0.000421927 0
-0.000201616 -0.000422855 0
-0.000160785 -0.000999359 0
-0.000205262 -0.00099859 0
-0.000201616 -0.000422855 0
-0.000240589 -0.00042443 0
-0.000205262 -0.00099859 0
-0.000242933 -0.0009963 0
-0.000240589 -0.00042443 0
-0.000276053 -0.000425093 0
-0.000242933 -0.0009963 0
-0.000275852 -0.000997044 0
-0.000276053 -0.000425093 0
-0.000302719 -0.000425674 0
-0.000275852 -0.000997044 0
-0.000300648 -0.000996915 0
-0.000302719 -0.000425674 0
-0.000325353 -0.000425811 0
-0.000300648 -0.000996915 0
-0.000321764 -0.000998538 0
-0.000325353 -0.000425811 0
-0.00033947 -0.000426077 0
-0.000321764 -0.000998538 0
-0.00033611 -0.00100002 0
-0.00033947 -0.000426077 0
-0.000348507 -0.000426193 0
-0.00033611 -0.00100002 0
-0.000348465 -0.00100295 0
-0.000348507 -0.000426193 0
-0.000353097 -0.00042701 0
-0.000348465 -0.00100295 0
-0.000355025 -0.00100534 0
-0.000353097 -0.00042701 0
-0.000356738 -0.000427888 0
-0.000355025 -0.00100534 0
-0.000358012 -0.00100871 0
-0.000356738 -0.000427888 0
-0.000355618 -0.000428912 0
-0.000358012 -0.00100871 0
-0.000356082 -0.00101221 0
-0.000355618 -0.000428912 0
-0.000354369 -0.000429701 0
-0.000356082 -0.00101221 0
-0.000353257 -0.001016 0
-0.000354369 -0.000429701 0
-0.000347729 -0.000430065 0
-0.000353257 -0.001016 0
-0.000346253 -0.0010198 0
-0.000347729 -0.000430065 0
-0.000340113 -0.000430584 0
-0.000346253 -0.0010198 0
-0.000338789 -0.00102308 0
-0.000340113 -0.000430584 0
-0.000327959 -0.000430668 0
-0.000338789 -0.00102308 0
-0.000327056 -0.00102541 0
-0.000327959 -0.000430668 0
-0.000317479 -0.000430626 0
-0.000327056 -0.00102541 0
-0.000317472 -0.00102647 0
0.342644 -0.332197 0
0.189688 -0.181339 0
0.340264 -0.114778 0
0.215159 -0.101629 0
0.189688 -0.181339 0
0.130379 -0.128867 0
0.215159 -0.101629 0
0.149396 -0.0897817 0
0.130379 -0.128867 0
0.0983226 -0.0976893 0
0.149396 -0.0897817 0
0.111107 -0.0747028 0
0.0783247 -0.0781799 0
0.0866481 -0.0630937 0
0.0983226 -0.0976893 0
0.111107 -0.0747028 0
0.064406 -0.0644499 0
0.0701673 -0.0539434 0
0.0783247 -0.0781799 0
0.0866481 -0.0630937 0
0.064406 -0.0644499 0
0.0544563 -0.0546399 0
0.0701673 -0.0539434 0
0.0584128 -0.0469094 0
0.0544563 -0.0546399 0
0.0470199 -0.0472707 0
0.0584128 -0.0469094 0
0.0498415 -0.0414235 0
0.0470199 -0.0472707 0
0.0413282 -0.041639 0
0.0498415 -0.0414235 0
0.0433403 -0.0370263 0
0.0413282 -0.041639 0
0.0368819 -0.0372192 0
0.0433403 -0.0370263 0
0.0383186 -0.0335185 0
0.0368819 -0.0372192 0
0.0332851 -0.0336499 0
0.0383186 -0.0335185 0
0.0343072 -0.03057 0
0.0332851 -0.0336499 0
0.0303196 -0.030696 0
0.0343072 -0.03057 0
0.0310274 -0.0281056 0
0.0303196 -0.030696 0
0.0277625 -0.0281533 0
0.0310274 -0.0281056 0
0.0282281 -0.0259215 0
0.0255203 -0.0259102 0
0.0257932 -0.0239785 0
0.0277625 -0.0281533 0
0.0282281 -0.0259215 0
0.0234439 -0.023835 0
0.0235334 -0.0221399 0
0.0255203 -0.0259102 0
0.0257932 -0.0239785 0
0.0234439 -0.023835 0
0.0215208 -0.0219203 0
0.0235334 -0.0221399 0
0.0214604 -0.020401 0
0.0196253 -0.0200449 0
0.0194435 -0.0186763 0
0.0215208 -0.0219203 0
0.0214604 -0.020401 0
0.0178121 -0.0182621 0
0.0175669 -0.0170069 0
0.0196253 -0.0200449 0
0.0194435 -0.0186763 0
0.0178121 -0.0182621 0
0.0159594 -0.0164203 0
0.0175669 -0.0170069 0
0.0156383 -0.0153192 0
0.014233 -0.014691 0
0.0137959 -0.0137163 0
0.0159594 -0.0164203 0
0.0156383 -0.0153192 0
0.014233 -0.014691 0
0.0124551 -0.0129243 0
0.0137959 -0.0137163 0
0.0119153 -0.0119904 0
0.0124551 -0.0129243 0
0.0107509 -0.0112264 0
0.0119153 -0.0119904 0
0.0102089 -0.0103716 0
0.0107509 -0.0112264 0
0.00890225 -0.00937787 0
0.0102089 -0.0103716 0
0.0084335 -0.00842403 0
0.00890225 -0.00937787 0
0.00689399 -0.00726704 0
0.0084335 -0.00842403 0
0.00694636 -0.00681785 0
0.00689399 -0.00726704 0
0.00470752 -0.00508089 0
0.00694636 -0.00681785 0
0.00522039 -0.00437727 0
0.00470752 -0.00508089 0
0.00210337 -0.00132197 0
0.00522039 -0.00437727 0
0.00422163 -0.00320993 0
0.00210337 -0.00132197 0
0.00414609 -0.000254314 0
0.00422163 -0.00320993 0
0.0043019 -0.0024453 0
0.00414609 -0.000254314 0
0.00354787 -0.000432228 0
0.0043019 -0.0024453 0
0.0033636 -0.00195533 0
0.00354787 -0.000432228 0
0.0027004 -0.000483413 0
0.0033636 -0.00195533 0
0.00271254 -0.00167345 0
0.0027004 -0.000483413 0
0.00115571 -0.000402353 0
0.00271254 -0.00167345 0
0.00131368 -0.00159722 0
-0.000327056 -0.00102541 0
-0.000317472 -0.00102647 0
-0.00032706 -0.000791243 0
-0.000318613 -0.000795034 0
-0.00032706 -0.000791243 0
-0.000318613 -0.000795034 0
-0.000331284 -0.00127404 0
-0.000323908 -0.0012773 0
-0.000331284 -0.00127404 0
-0.000323908 -0.0012773 0
-0.000339252 -0.00112819 0
-0.000331822 -0.0011329 0
-0.000339252 -0.00112819 0
-0.000331822 -0.0011329 0
-0.000349114 -0.00151284 0
-0.000344145 -0.00151867 0
-0.000349114 -0.00151284 0
-0.000344145 -0.00151867 0
-0.000362623 -0.00142346 0
-0.000357397 -0.00142973 0
-0.000362623 -0.00142346 0
-0.000357397 -0.00142973 0
-0.000376481 -0.00172206 0
-0.00037298 -0.00172952 0
-0.000394229 -0.00166843 0
-0.000376481 -0.00172206 0
-0.000390711 -0.00167662 0
-0.00037298 -0.00172952 0
-0.000394229 -0.00166843 0
-0.000390711 -0.00167662 0
-0.000413794 -0.00189343 0
-0.000411118 -0.00190253 0
-0.000413794 -0.00189343 0
-0.000411118 -0.00190253 0
-0.000437495 -0.00186316 0
-0.000435225 -0.00187376 0
-0.000437495 -0.00186316 0
-0.000435225 -0.00187376 0
-0.000465501 -0.00202603 0
-0.000464523 -0.00203779 0
-0.000465501 -0.00202603 0
-0.000464523 -0.00203779 0
-0.000498714 -0.00201179 0
-0.000499635 -0.0020258 0
-0.000498714 -0.00201179 0
-0.000499635 -0.0020258 0
-0.000539073 -0.00211933 0
-0.000545175 -0.00213549 0
-0.000539073 -0.00211933 0
-0.000545175 -0.00213549 0
-0.000585695 -0.00211266 0
-0.000599416 -0.00213113 0
-0.000585695 -0.00211266 0
-0.000599416 -0.00213113 0
-0.000639272 -0.00216213 0
-0.000665939 -0.00218287 0
-0.000639272 -0.00216213 0
-0.000665939 -0.00218287 0
-0.000694689 -0.0021497 0
-0.000738808 -0.00217087 0
-0.000694689 -0.0021497 0
-0.000738808 -0.00217087 0
-0.000746455 -0.00212943 0
-0.000811856 -0.00214881 0
-0.000746455 -0.00212943 0
-0.000811856 -0.00214881 0
-0.000782358 -0.00210075 0
-0.000868653 -0.0021137 0
-0.000782358 -0.00210075 0
-0.000868653 -0.0021137 0
-0.000791748 -0.00200744 0
-0.000891336 -0.00200998 0
-0.000791748 -0.00200744 0
-0.000891336 -0.00200998 0
-0.000766719 -0.0019828 0
-0.0008646 -0.00197229 0
-0.000766719 -0.0019828 0
-0.0008646 -0.00197229 0
-0.000709828 -0.00184489 0
-0.000791391 -0.00182573 0
-0.000709828 -0.00184489 0
-0.000791391 -0.00182573 0
-0.000632893 -0.00187509 0
-0.000691495 -0.0018512 0
-0.000632893 -0.00187509 0
-0.000691495 -0.0018512 0
-0.000548153 -0.00171421 0
-0.000583885 -0.00169161 0
-0.000548153 -0.00171421 0
-0.000583885 -0.00169161 0
-0.000471098 -0.0018274 0
-0.000487574 -0.00180708 0
-0.000471098 -0.0018274 0
-0.000487574 -0.00180708 0
-0.000399972 -0.00161835 0
-0.000402762 -0.00160439 0
-0.000399972 -0.00161835 0
-0.000402762 -0.00160439 0
-0.000350883 -0.00181854 0
-0.000346754 -0.00180655 0
-0.000350883 -0.00181854 0
-0.000346754 -0.00180655 0
-0.000301519 -0.00150869 0
-0.000290907 -0.00149973 0
-0.000301519 -0.00150869 0
-0.000290907 -0.00149973 0
-0.000268559 -0.00182072 0
-0.00025665 -0.00181375 0
-0.000268559 -0.00182072 0
-0.00025665 -0.00181375 0
-0.000233437 -0.00133813 0
-0.000217381 -0.00133456 0
-0.000233437 -0.00133813 0
-0.000217381 -0.00133456 0
-0.000224173 -0.00181073 0
-0.000207833 -0.0018107 0
-0.000224173 -0.00181073 0
-0.000207833 -0.0018107 0
-0.000216633 -0.00106147 0
-0.000199689 -0.00106092 0
-0.000216633 -0.00106147 0
-0.000199689 -0.00106092 0
-0.000218869 -0.00179204 0
-0.000200481 -0.00179316 0
0.340264 -0.114778 0
0.215159 -0.101629 0
0.248486 0.0189008 0
0.195202 -0.0263422 0
0.215159 -0.101629 0
0.149396 -0.0897817 0
0.195202 -0.0263422 0
0.14505 -0.0403453 0
0.149396 -0.0897817 0
0.111107 -0.0747028 0
0.14505 -0.0403453 0
0.11215 -0.0443336 0
0.0866481 -0.0630937 0
0.0885386 -0.042062 0
0.111107 -0.0747028 0
0.11215 -0.0443336 0
0.0701673 -0.0539434 0
0.072266 -0.0393941 0
0.0866481 -0.0630937 0
0.0885386 -0.042062 0
0.0701673 -0.0539434 0
0.0584128 -0.0469094 0
0.072266 -0.0393941 0
0.0602599 -0.0360204 0
0.0584128 -0.0469094 0
0.0498415 -0.0414235 0
0.0602599 -0.0360204 0
0.0513658 -0.0331123 0
0.0498415 -0.0414235 0
0.0433403 -0.0370263 0
0.0513658 -0.0331123 0
0.0446002 -0.0304235 0
0.0433403 -0.0370263 0
0.0383186 -0.0335185 0
0.0446002 -0.0304235 0
0.0393143 -0.0280964 0
0.0383186 -0.0335185 0
0.0343072 -0.03057 0
0.0393143 -0.0280964 0
0.0351209 -0.0260275 0
0.0343072 -0.03057 0
0.0310274 -0.0281056 0
0.0351209 -0.0260275 0
0.0316336 -0.024196 0
0.0310274 -0.0281056 0
0.0282281 -0.0259215 0
0.0316336 -0.024196 0
0.0286995 -0.0225265 0
0.0257932 -0.0239785 0
0.0261253 -0.0209363 0
0.0282281 -0.0259215 0
0.0286995 -0.0225265 0
0.0235334 -0.0221399 0
0.0238053 -0.0194083 0
0.0257932 -0.0239785 0
0.0261253 -0.0209363 0
0.0235334 -0.0221399 0
0.0214604 -0.020401 0
0.0238053 -0.0194083 0
0.0216456 -0.0179053 0
0.0194435 -0.0186763 0
0.0195112 -0.016464 0
0.0214604 -0.020401 0
0.0216456 -0.0179053 0
0.0175669 -0.0170069 0
0.0175137 -0.0150003 0
0.0194435 -0.0186763 0
0.0195112 -0.016464 0
0.0175669 -0.0170069 0
0.0156383 -0.0153192 0
0.0175137 -0.0150003 0
0.0154451 -0.0134383 0
0.0137959 -0.0137163 0
0.0135148 -0.0118836 0
0.0156383 -0.0153192 0
0.0154451 -0.0134383 0
0.0137959 -0.0137163 0
0.0119153 -0.0119904 0
0.0135148 -0.0118836 0
0.0114847 -0.0104234 0
0.0119153 -0.0119904 0
0.0102089 -0.0103716 0
0.0114847 -0.0104234 0
0.00986096 -0.00881374 0
0.0102089 -0.0103716 0
0.0084335 -0.00842403 0
0.00986096 -0.00881374 0
0.00789007 -0.00716768 0
0.0084335 -0.00842403 0
0.00694636 -0.00681785 0
0.00789007 -0.00716768 0
0.00666062 -0.0054331 0
0.00522409 -0.00305377 0
0.0043019 -0.0024453 0
0.00403981 -0.00293961 0
0.0033636 -0.00195533 0
0.00403981 -0.00293961 0
0.0033636 -0.00195533 0
0.00296013 -0.00245955 0
0.00271254 -0.00167345 0
0.00296013 -0.00245955 0
0.00271254 -0.00167345 0
0.00123509 -0.00184339 0
0.00131368 -0.00159722 0
0.00344828 -0.00348044 0
0.00296013 -0.00245955 0
0.00162996 -0.00273969 0
0.00123509 -0.00184339 0
0.00383978 -0.00326236 0
0.00344828 -0.00348044 0
0.00188337 -0.00260463 0
0.00162996 -0.00273969 0
0.00442176 -0.00342337 0
0.00383978 -0.00326236 0
0.00234584 -0.00280413 0
0.00188337 -0.00260463 0
0.00536255 -0.00304003 0
0.00442176 -0.00342337 0
0.00296695 -0.00172918 0
0.00234584 -0.00280413 0
0.00678341 -0.00315615 0
0.00536255 -0.00304003 0
0.00517573 -0.000940391 0
0.00296695 -0.00172918 0
0.00821197 -0.00344828 0
0.00678341 -0.00315615 0
0.00732868 -0.00189365 0
0.00517573 -0.000940391 0
0.00821197 -0.00344828 0
0.00732868 -0.00189365 0
0.00944937 -0.00408711 0
0.00849658 -0.0033735 0
0.00732868 -0.00189365 0
0.00806534 -0.00118491 0
0.00849658 -0.0033735 0