# vtk DataFile Version 3.0
#This file was generated by the deal.II library on 2016/12/20 at 10:56:53
ASCII
DATASET UNSTRUCTURED_GRID

POINTS 7360 double
-1 0.5 0
-0.978723 0.478723 0
-0.970149 0.5 0
-0.964976 0.485465 0
0.12 -0.5 0
0.15 -0.5 0
0.119014 -0.4708 0
0.15 -0.471429 0
0.11755 -0.441479 0
0.119014 -0.4708 0
0.15 -0.442857 0
0.15 -0.471429 0
0.117242 -0.412206 0
0.11755 -0.441479 0
0.15 -0.414286 0
0.15 -0.442857 0
0.118129 -0.383064 0
0.117242 -0.412206 0
0.15 -0.385714 0
0.15 -0.414286 0
0.12021 -0.354337 0
0.118129 -0.383064 0
0.15 -0.357143 0
0.15 -0.385714 0
0.121793 -0.32584 0
0.12021 -0.354337 0
0.15 -0.328571 0
0.15 -0.357143 0
0.122717 -0.296869 0
0.121793 -0.32584 0
0.15 -0.3 0
0.15 -0.328571 0
0.123759 -0.266752 0
0.122717 -0.296869 0
0.153091 -0.267708 0
0.15 -0.3 0
0.18456 -0.26795 0
0.153091 -0.267708 0
0.183333 -0.3 0
0.15 -0.3 0
0.216606 -0.268111 0
0.18456 -0.26795 0
0.216667 -0.3 0
0.183333 -0.3 0
0.24835 -0.26841 0
0.216606 -0.268111 0
0.25 -0.3 0
0.216667 -0.3 0
0.278782 -0.268564 0
0.24835 -0.26841 0
0.279437 -0.298917 0
0.25 -0.3 0
0.279638 -0.328111 0
0.279437 -0.298917 0
0.25 -0.328571 0
0.25 -0.3 0
0.27971 -0.356801 0
0.279638 -0.328111 0
0.25 -0.357143 0
0.25 -0.328571 0
0.279677 -0.385395 0
0.27971 -0.356801 0
0.25 -0.385714 0
0.25 -0.357143 0
0.279641 -0.413938 0
0.279677 -0.385395 0
0.25 -0.414286 0
0.25 -0.385714 0
0.279666 -0.442534 0
0.279641 -0.413938 0
0.25 -0.442857 0
0.25 -0.414286 0
0.279811 -0.471266 0
0.279666 -0.442534 0
0.25 -0.471429 0
0.25 -0.442857 0
0.28 -0.5 0
0.279811 -0.471266 0
0.25 -0.5 0
0.25 -0.471429 0
0.970149 0.5 0
0.970096 0.46978 0
1 0.5 0
1 0.469697 0
0.940299 0.5 0
0.940231 0.46984 0
0.970149 0.5 0
0.970096 0.46978 0
0.910448 0.5 0
0.910371 0.469856 0
0.940299 0.5 0
0.940231 0.46984 0
0.880597 0.5 0
0.880527 0.469909 0
0.910448 0.5 0
0.910371 0.469856 0
0.850746 0.5 0
0.850684 0.469926 0
0.880597 0.5 0
0.880527 0.469909 0
0.820896 0.5 0
0.820842 0.469978 0
0.850746 0.5 0
0.850684 0.469926 0
0.791045 0.5 0
0.791001 0.470016 0
0.820896 0.5 0
0.820842 0.469978 0
0.761194 0.5 0
0.761159 0.470055 0
0.791045 0.5 0
0.791001 0.470016 0
0.731343 0.5 0
0.731316 0.470091 0
0.761194 0.5 0
0.761159 0.470055 0
0.701493 0.5 0
0.701472 0.470118 0
0.731343 0.5 0
0.731316 0.470091 0
0.671642 0.5 0
0.671627 0.470134 0
0.701493 0.5 0
0.701472 0.470118 0
0.641791 0.5 0
0.64178 0.470142 0
0.671642 0.5 0
0.671627 0.470134 0
0.641791 0.5 0
0.61194 0.5 0
0.64178 0.470142 0
0.611934 0.470065 0
0.58209 0.5 0
0.582089 0.470002 0
0.61194 0.5 0
0.611934 0.470065 0
0.552239 0.5 0
0.552248 0.469853 0
0.58209 0.5 0
0.582089 0.470002 0
0.522388 0.5 0
0.522413 0.469718 0
0.552239 0.5 0
0.552248 0.469853 0
0.492537 0.5 0
0.492577 0.469656 0
0.522388 0.5 0
0.522413 0.469718 0
0.462687 0.5 0
0.462743 0.469571 0
0.492537 0.5 0
0.492577 0.469656 0
0.432836 0.5 0
0.432895 0.46963 0
0.462687 0.5 0
0.462743 0.469571 0
0.402985 0.5 0
0.403046 0.469669 0
0.432836 0.5 0
0.432895 0.46963 0
0.373134 0.5 0
0.373191 0.469745 0
0.402985 0.5 0
0.403046 0.469669 0
0.343284 0.5 0
0.343335 0.469723 0
0.373134 0.5 0
0.373191 0.469745 0
0.313433 0.5 0
0.313478 0.469741 0
0.343284 0.5 0
0.343335 0.469723 0
0.283582 0.5 0
0.283622 0.469783 0
0.313433 0.5 0
0.313478 0.469741 0
0.253731 0.5 0
0.253768 0.469742 0
0.283582 0.5 0
0.283622 0.469783 0
0.223881 0.5 0
0.223918 0.469737 0
0.253731 0.5 0
0.253768 0.469742 0
0.19403 0.5 0
0.194064 0.46981 0
0.223881 0.5 0
0.223918 0.469737 0
0.164179 0.5 0
0.16421 0.469881 0
0.19403 0.5 0
0.194064 0.46981 0
0.134328 0.5 0
0.134355 0.46994 0
0.164179 0.5 0
0.16421 0.469881 0
0.104478 0.5 0
0.1045 0.469997 0
0.134328 0.5 0
0.134355 0.46994 0
0.074627 0.5 0
0.074645 0.470051 0
0.104478 0.5 0
0.1045 0.469997 0
0.044776 0.5 0
0.04479 0.470093 0
0.074627 0.5 0
0.074645 0.470051 0
0.014925 0.5 0
0.014935 0.47012 0
0.044776 0.5 0
0.04479 0.470093 0
-0.014925 0.5 0
-0.014918 0.470135 0
0.014925 0.5 0
0.014935 0.47012 0
-0.044776 0.5 0
-0.044771 0.470143 0
-0.014925 0.5 0
-0.014918 0.470135 0
-0.074627 0.5 0
-0.074623 0.470146 0
-0.044776 0.5 0
-0.044771 0.470143 0
-0.104478 0.5 0
-0.104496 0.469979 0
-0.074627 0.5 0
-0.074623 0.470146 0
-0.134328 0.5 0
-0.134359 0.469935 0
-0.104478 0.5 0
-0.104496 0.469979 0
-0.164179 0.5 0
-0.164225 0.469839 0
-0.134328 0.5 0
-0.134359 0.469935 0
-0.164179 0.5 0
-0.19403 0.5 0
-0.164225 0.469839 0
-0.194083 0.469797 0
-0.223881 0.5 0
-0.22394 0.469753 0
-0.19403 0.5 0
-0.194083 0.469797 0
-0.253731 0.5 0
-0.253798 0.469819 0
-0.223881 0.5 0
-0.22394 0.469753 0
-0.283582 0.5 0
-0.283647 0.470019 0
-0.253731 0.5 0
-0.253798 0.469819 0
-0.313433 0.5 0
-0.313491 0.470151 0
-0.283582 0.5 0
-0.283647 0.470019 0
-0.343284 0.5 0
-0.343348 0.470381 0
-0.313433 0.5 0
-0.313491 0.470151 0
-0.343284 0.5 0
-0.373134 0.5 0
-0.343348 0.470381 0
-0.373195 0.470395 0
-0.373134 0.5 0
-0.402985 0.5 0
-0.373195 0.470395 0
-0.403049 0.470404 0
-0.432836 0.5 0
-0.432937 0.470297 0
-0.402985 0.5 0
-0.403049 0.470404 0
-0.462687 0.5 0
-0.462848 0.469995 0
-0.432836 0.5 0
-0.432937 0.470297 0
-0.492537 0.5 0
-0.492807 0.469765 0
-0.462687 0.5 0
-0.462848 0.469995 0
-0.522388 0.5 0
-0.52276 0.46958 0
-0.492537 0.5 0
-0.492807 0.469765 0
-0.552239 0.5 0
-0.55273 0.469652 0
-0.522388 0.5 0
-0.52276 0.46958 0
-0.58209 0.5 0
-0.582662 0.469731 0
-0.552239 0.5 0
-0.55273 0.469652 0
-0.61194 0.5 0
-0.612594 0.469999 0
-0.58209 0.5 0
-0.582662 0.469731 0
-0.641791 0.5 0
-0.642647 0.470419 0
-0.61194 0.5 0
-0.612594 0.469999 0
-0.671642 0.5 0
-0.672638 0.470543 0
-0.641791 0.5 0
-0.642647 0.470419 0
-0.701493 0.5 0
-0.702968 0.4698 0
-0.671642 0.5 0
-0.672638 0.470543 0
-0.820896 0.5 0
-0.822797 0.47207 0
-0.791045 0.5 0
-0.795702 0.469563 0
0.31 -0.5 0
0.309694 -0.471123 0
0.28 -0.5 0
0.279811 -0.471266 0
0.31 -0.5 0
0.34 -0.5 0
0.309694 -0.471123 0
0.339686 -0.471033 0
0.37 -0.5 0
0.369721 -0.471055 0
0.34 -0.5 0
0.339686 -0.471033 0
0.37 -0.5 0
0.4 -0.5 0
0.369721 -0.471055 0
0.399756 -0.470957 0
0.4 -0.5 0
0.43 -0.5 0
0.399756 -0.470957 0
0.429805 -0.470822 0
0.43 -0.5 0
0.46 -0.5 0
0.429805 -0.470822 0
0.459835 -0.470712 0
0.46 -0.5 0
0.49 -0.5 0
0.459835 -0.470712 0
0.489873 -0.470554 0
0.49 -0.5 0
0.52 -0.5 0
0.489873 -0.470554 0
0.519906 -0.470379 0
0.52 -0.5 0
0.55 -0.5 0
0.519906 -0.470379 0
0.54993 -0.470248 0
0.55 -0.5 0
0.58 -0.5 0
0.54993 -0.470248 0
0.579948 -0.470155 0
0.58 -0.5 0
0.61 -0.5 0
0.579948 -0.470155 0
0.609962 -0.470091 0
0.61 -0.5 0
0.64 -0.5 0
0.609962 -0.470091 0
0.639972 -0.47005 0
0.64 -0.5 0
0.67 -0.5 0
0.639972 -0.47005 0
0.66998 -0.470026 0
0.67 -0.5 0
0.7 -0.5 0
0.66998 -0.470026 0
0.699986 -0.470013 0
0.7 -0.5 0
0.73 -0.5 0
0.699986 -0.470013 0
0.72999 -0.470006 0
0.73 -0.5 0
0.76 -0.5 0
0.72999 -0.470006 0
0.759994 -0.470003 0
0.76 -0.5 0
0.79 -0.5 0
0.759994 -0.470003 0
0.78998 -0.469916 0
0.79 -0.5 0
0.82 -0.5 0
0.78998 -0.469916 0
0.819956 -0.469877 0
0.82 -0.5 0
0.85 -0.5 0
0.819956 -0.469877 0
0.849929 -0.469833 0
0.85 -0.5 0
0.88 -0.5 0
0.849929 -0.469833 0
0.879924 -0.469805 0
0.88 -0.5 0
0.91 -0.5 0
0.879924 -0.469805 0
0.909913 -0.469792 0
0.91 -0.5 0
0.94 -0.5 0
0.909913 -0.469792 0
0.939922 -0.469775 0
0.94 -0.5 0
0.97 -0.5 0
0.939922 -0.469775 0
0.969956 -0.46974 0
0.97 -0.5 0
1 -0.5 0
0.969956 -0.46974 0
1 -0.469697 0
-0.617021 0.117021 0
-0.595665 0.139192 0
-0.638298 0.138298 0
-0.616915 0.16063 0
-0.617021 0.117021 0
-0.595745 0.095745 0
-0.595665 0.139192 0
-0.574431 0.117764 0
-0.595745 0.095745 0
-0.574468 0.074468 0
-0.574431 0.117764 0
-0.553204 0.096309 0
-0.553191 0.053191 0
-0.53184 0.075023 0
-0.574468 0.074468 0
-0.553204 0.096309 0
-0.553191 0.053191 0
-0.531915 0.031915 0
-0.53184 0.075023 0
-0.510492 0.053733 0
-0.531915 0.031915 0
-0.510638 0.010638 0
-0.510492 0.053733 0
-0.489127 0.032461 0
-0.510638 0.010638 0
-0.489362 -0.010638 0
-0.489127 0.032461 0
-0.467791 0.011178 0
-0.489362 -0.010638 0
-0.468085 -0.031915 0
-0.467791 0.011178 0
-0.446536 -0.010172 0
-0.446809 -0.053191 0
-0.42524 -0.031466 0
-0.468085 -0.031915 0
-0.446536 -0.010172 0
-0.425532 -0.074468 0
-0.404012 -0.052824 0
-0.446809 -0.053191 0
-0.42524 -0.031466 0
-0.425532 -0.074468 0
-0.404255 -0.095745 0
-0.404012 -0.052824 0
-0.382783 -0.074175 0
-0.404255 -0.095745 0
-0.382979 -0.117021 0
-0.382783 -0.074175 0
-0.361545 -0.095511 0
-0.382979 -0.117021 0
-0.361702 -0.138298 0
-0.361545 -0.095511 0
-0.340288 -0.116831 0
-0.361702 -0.138298 0
-0.340426 -0.159574 0
-0.340288 -0.116831 0
-0.319034 -0.138159 0
-0.340426 -0.159574 0
-0.319149 -0.180851 0
-0.319034 -0.138159 0
-0.297766 -0.159484 0
-0.319149 -0.180851 0
-0.297872 -0.202128 0
-0.297766 -0.159484 0
-0.276489 -0.180797 0
-0.297872 -0.202128 0
-0.276596 -0.223404 0
-0.276489 -0.180797 0
-0.255087 -0.202105 0
-0.255319 -0.244681 0
-0.233674 -0.223466 0
-0.276596 -0.223404 0
-0.255087 -0.202105 0
-0.234043 -0.265957 0
-0.212119 -0.244916 0
-0.255319 -0.244681 0
-0.233674 -0.223466 0
-0.234043 -0.265957 0
-0.212766 -0.287234 0
-0.212119 -0.244916 0
-0.190657 -0.266392 0
-0.191489 -0.308511 0
-0.169261 -0.287934 0
-0.212766 -0.287234 0
-0.190657 -0.266392 0
-0.170213 -0.329787 0
-0.147854 -0.309624 0
-0.191489 -0.308511 0
-0.169261 -0.287934 0
-0.170213 -0.329787 0
-0.148936 -0.351064 0
-0.147854 -0.309624 0
-0.126431 -0.331364 0
-0.12766 -0.37234 0
-0.105256 -0.353368 0
-0.148936 -0.351064 0
-0.126431 -0.331364 0
-0.12766 -0.37234 0
-0.106383 -0.393617 0
-0.105256 -0.353368 0
-0.083924 -0.375263 0
-0.106383 -0.393617 0
-0.085106 -0.414894 0
-0.083924 -0.375263 0
-0.062097 -0.396824 0
-0.085106 -0.414894 0
-0.06383 -0.43617 0
-0.062097 -0.396824 0
-0.040132 -0.418076 0
-0.06383 -0.43617 0
-0.042553 -0.457447 0
-0.040132 -0.418076 0
-0.019646 -0.439891 0
-0.042553 -0.457447 0
-0.021277 -0.478723 0
-0.019646 -0.439891 0
-0.002475 -0.461393 0
-0.021277 -0.478723 0
0 -0.5 0
-0.002475 -0.461393 0
0.009599 -0.478226 0
0 -0.5 0
0.03 -0.5 0
0.009599 -0.478226 0
0.029922 -0.474701 0
0.03 -0.5 0
0.06 -0.5 0
0.029922 -0.474701 0
0.057397 -0.471689 0
0.06 -0.5 0
0.09 -0.5 0
[...]
POINT_DATA 7360
VECTORS momentum double
-4.32629e-05 -0.000319547 0
-0.00146994 0.000838665 0
0.00331409 -0.00064885 0
0.00301393 0.00349788 0
-4.38623e-05 -0.000401876 0
7.24159e-05 -0.000405307 0
9.44976e-06 -0.000902516 0
6.39994e-05 -0.000859022 0
-0.000184755 -0.000545068 0
9.44976e-06 -0.000902516 0
7.56384e-05 -0.000582777 0
6.39994e-05 -0.000859022 0
-4.07512e-05 -0.000983807 0
-0.000184755 -0.000545068 0
-1.82688e-06 -0.00108498 0
7.56384e-05 -0.000582777 0
3.88546e-05 -0.000688316 0
-4.07512e-05 -0.000983807 0
-1.14254e-05 -0.000796637 0
-1.82688e-06 -0.00108498 0
5.45101e-05 -0.00102237 0
3.88546e-05 -0.000688316 0
-4.23352e-05 -0.00102327 0
-1.14254e-05 -0.000796637 0
0.000189328 -0.000775022 0
5.45101e-05 -0.00102237 0
1.52018e-05 -0.000732363 0
-4.23352e-05 -0.00102327 0
5.26625e-06 -0.00131434 0
0.000189328 -0.000775022 0
-6.60924e-05 -0.000628093 0
1.52018e-05 -0.000732363 0
-0.00050297 -0.000854662 0
5.26625e-06 -0.00131434 0
-0.000761667 -0.00100818 0
-6.60924e-05 -0.000628093 0
-0.000369574 -0.00131447 0
-0.000761667 -0.00100818 0
-8.17545e-05 -0.00042779 0
-6.60924e-05 -0.000628093 0
-0.000187108 -0.00138681 0
-0.000369574 -0.00131447 0
-0.000492786 -0.000491326 0
-8.17545e-05 -0.00042779 0
5.33865e-05 -0.000893291 0
-0.000187108 -0.00138681 0
-0.000198739 -0.000507279 0
-0.000492786 -0.000491326 0
-1.67589e-05 -0.000631261 0
5.33865e-05 -0.000893291 0
-0.000223406 -0.000970809 0
-0.000198739 -0.000507279 0
-7.29038e-05 -0.000521583 0
-0.000223406 -0.000970809 0
8.82503e-06 -0.0004243 0
-0.000198739 -0.000507279 0
-3.6006e-05 -0.000830223 0
-7.29038e-05 -0.000521583 0
-1.27833e-05 -0.000829601 0
8.82503e-06 -0.0004243 0
4.14771e-06 -0.000473832 0
-3.6006e-05 -0.000830223 0
2.79373e-07 -0.000463469 0
-1.27833e-05 -0.000829601 0
-2.28631e-05 -0.000829412 0
4.14771e-06 -0.000473832 0
-2.6071e-06 -0.000832678 0
2.79373e-07 -0.000463469 0
-2.09406e-07 -0.000428851 0
-2.28631e-05 -0.000829412 0
2.3698e-07 -0.000423295 0
-2.6071e-06 -0.000832678 0
-2.30371e-05 -0.000854641 0
-2.09406e-07 -0.000428851 0
-2.17666e-06 -0.000855919 0
2.3698e-07 -0.000423295 0
4.51517e-06 -0.000381516 0
-2.30371e-05 -0.000854641 0
1.38673e-06 -0.000377652 0
-2.17666e-06 -0.000855919 0
-4.37662e-05 -0.000656061 0
-3.3639e-05 -0.00169323 0
-4.36307e-05 -0.000656213 0
-3.05133e-05 -0.00169287 0
-3.9892e-05 -0.000656626 0
-3.31206e-05 -0.00169563 0
-4.37662e-05 -0.000656061 0
-3.3639e-05 -0.00169323 0
-3.45064e-05 -0.000656255 0
-2.7318e-05 -0.00169782 0
-3.9892e-05 -0.000656626 0
-3.31206e-05 -0.00169563 0
-2.76905e-05 -0.000655385 0
-2.0834e-05 -0.00169982 0
-3.45064e-05 -0.000656255 0
-2.7318e-05 -0.00169782 0
-1.94678e-05 -0.000654722 0
-1.15028e-05 -0.00170218 0
-2.76905e-05 -0.000655385 0
-2.0834e-05 -0.00169982 0
-9.89767e-06 -0.000653319 0
-1.30224e-06 -0.00170454 0
-1.94678e-05 -0.000654722 0
-1.15028e-05 -0.00170218 0
2.05823e-06 -0.00065259 0
1.04309e-05 -0.00170701 0
-9.89767e-06 -0.000653319 0
-1.30224e-06 -0.00170454 0
1.45274e-05 -0.000651031 0
2.33913e-05 -0.0017102 0
2.05823e-06 -0.00065259 0
1.04309e-05 -0.00170701 0
2.95505e-05 -0.000649789 0
3.59086e-05 -0.00171348 0
1.45274e-05 -0.000651031 0
2.33913e-05 -0.0017102 0
4.479e-05 -0.000648999 0
4.96503e-05 -0.00171736 0
2.95505e-05 -0.000649789 0
3.59086e-05 -0.00171348 0
6.21398e-05 -0.000647764 0
6.28257e-05 -0.00172094 0
4.479e-05 -0.000648999 0
4.96503e-05 -0.00171736 0
8.00524e-05 -0.000647025 0
7.16201e-05 -0.00172579 0
6.21398e-05 -0.000647764 0
6.28257e-05 -0.00172094 0
8.00524e-05 -0.000647025 0
9.39644e-05 -0.000647634 0
7.16201e-05 -0.00172579 0
8.02046e-05 -0.00173115 0
0.000106103 -0.000647979 0
8.47167e-05 -0.00173833 0
9.39644e-05 -0.000647634 0
8.02046e-05 -0.00173115 0
0.000112751 -0.000650684 0
8.70645e-05 -0.00174445 0
0.000106103 -0.000647979 0
8.47167e-05 -0.00173833 0
0.000110442 -0.000653369 0
9.18893e-05 -0.00174815 0
0.000112751 -0.000650684 0
8.70645e-05 -0.00174445 0
0.000108649 -0.000654595 0
9.41113e-05 -0.00174862 0
0.000110442 -0.000653369 0
9.18893e-05 -0.00174815 0
9.69781e-05 -0.000656634 0
9.10401e-05 -0.00174756 0
0.000108649 -0.000654595 0
9.41113e-05 -0.00174862 0
7.81145e-05 -0.000657266 0
8.37288e-05 -0.0017456 0
9.69781e-05 -0.000656634 0
9.10401e-05 -0.00174756 0
5.91723e-05 -0.000656365 0
7.06381e-05 -0.0017431 0
7.81145e-05 -0.000657266 0
8.37288e-05 -0.0017456 0
4.51268e-05 -0.000654603 0
5.3546e-05 -0.00174296 0
5.91723e-05 -0.000656365 0
7.06381e-05 -0.0017431 0
3.22746e-05 -0.000654704 0
3.55596e-05 -0.00174228 0
4.51268e-05 -0.000654603 0
5.3546e-05 -0.00174296 0
1.89241e-05 -0.000654539 0
2.31059e-05 -0.00174594 0
3.22746e-05 -0.000654704 0
3.55596e-05 -0.00174228 0
7.11969e-06 -0.000654738 0
6.08305e-06 -0.00174745 0
1.89241e-05 -0.000654539 0
2.31059e-05 -0.00174594 0
1.01909e-06 -0.000656106 0
-6.65913e-06 -0.00174603 0
7.11969e-06 -0.000654738 0
6.08305e-06 -0.00174745 0
-1.78689e-05 -0.000659707 0
-2.41402e-05 -0.00174297 0
1.01909e-06 -0.000656106 0
-6.65913e-06 -0.00174603 0
-3.6542e-05 -0.000663965 0
-3.21255e-05 -0.00173835 0
-1.78689e-05 -0.000659707 0
-2.41402e-05 -0.00174297 0
-5.89018e-05 -0.000663305 0
-4.49131e-05 -0.00173875 0
-3.6542e-05 -0.000663965 0
-3.21255e-05 -0.00173835 0
-6.74701e-05 -0.00066093 0
-5.01135e-05 -0.00173966 0
-5.89018e-05 -0.000663305 0
-4.49131e-05 -0.00173875 0
-8.38766e-05 -0.000657236 0
-6.38785e-05 -0.00174244 0
-6.74701e-05 -0.00066093 0
-5.01135e-05 -0.00173966 0
-8.20889e-05 -0.00065243 0
-6.16645e-05 -0.00174252 0
-8.38766e-05 -0.000657236 0
-6.38785e-05 -0.00174244 0
-9.18811e-05 -0.000647598 0
-7.55409e-05 -0.00174133 0
-8.20889e-05 -0.00065243 0
-6.16645e-05 -0.00174252 0
-7.68788e-05 -0.000645483 0
-6.61527e-05 -0.00172831 0
-9.18811e-05 -0.000647598 0
-7.55409e-05 -0.00174133 0
-8.82812e-05 -0.000644298 0
-7.54985e-05 -0.00171074 0
-7.68788e-05 -0.000645483 0
-6.61527e-05 -0.00172831 0
-6.97887e-05 -0.000642259 0
-5.79231e-05 -0.00167103 0
-8.82812e-05 -0.000644298 0
-7.54985e-05 -0.00171074 0
-0.000103078 -0.000641072 0
-9.40387e-05 -0.00161564 0
-6.97887e-05 -0.000642259 0
-5.79231e-05 -0.00167103 0
-0.000133768 -0.000639891 0
-0.000117615 -0.00151775 0
-0.000103078 -0.000641072 0
-9.40387e-05 -0.00161564 0
-0.000278875 -0.000639263 0
-0.000241842 -0.00138698 0
-0.000133768 -0.000639891 0
-0.000117615 -0.00151775 0
-0.000448814 -0.00063696 0
-0.000392474 -0.00118409 0
-0.000278875 -0.000639263 0
-0.000241842 -0.00138698 0
-0.000448814 -0.00063696 0
-0.000835133 -0.000634239 0
-0.000392474 -0.00118409 0
-0.000731474 -0.000928183 0
-0.00133197 -0.000620542 0
-0.00117666 -0.000561328 0
-0.000835133 -0.000634239 0
-0.000731474 -0.000928183 0
-0.00222558 -0.000604055 0
-0.00199439 -0.000105923 0
-0.00133197 -0.000620542 0
-0.00117666 -0.000561328 0
-0.00342737 -0.000574787 0
-0.00315037 0.000549808 0
-0.00222558 -0.000604055 0
-0.00199439 -0.000105923 0
-0.00541007 -0.000544876 0
-0.00505563 0.00133345 0
-0.00342737 -0.000574787 0
-0.00315037 0.000549808 0
-0.00812581 -0.000496374 0
-0.0077543 0.00244484 0
-0.00541007 -0.000544876 0
-0.00505563 0.00133345 0
-0.00812581 -0.000496374 0
-0.0123311 -0.000449088 0
-0.0077543 0.00244484 0
-0.011883 0.00377234 0
-0.0123311 -0.000449088 0
-0.0180313 -0.000377852 0
-0.011883 0.00377234 0
-0.0176293 0.00569685 0
-0.0264044 -0.000325971 0
-0.0258885 0.00791258 0
-0.0180313 -0.000377852 0
-0.0176293 0.00569685 0
-0.0373733 -0.000222342 0
-0.0370259 0.011193 0
-0.0264044 -0.000325971 0
-0.0258885 0.00791258 0
-0.0527043 -0.000191475 0
-0.0520792 0.0147039 0
-0.0373733 -0.000222342 0
-0.0370259 0.011193 0
-0.0716879 -1.56766e-05 0
-0.0715878 0.0196976 0
-0.0527043 -0.000191475 0
-0.0520792 0.0147039 0
-0.0972203 -6.89628e-05 0
-0.096328 0.0244339 0
-0.0716879 -1.56766e-05 0
-0.0715878 0.0196976 0
-0.126955 0.000329853 0
-0.127594 0.0321053 0
-0.0972203 -6.89628e-05 0
-0.096328 0.0244339 0
-0.167331 -9.51293e-06 0
-0.16506 0.0380619 0
-0.126955 0.000329853 0
-0.127594 0.0321053 0
-0.210708 0.000992607 0
-0.212048 0.0513652 0
-0.167331 -9.51293e-06 0
-0.16506 0.0380619 0
-0.273957 0.00133745 0
-0.264287 0.0528392 0
-0.210708 0.000992607 0
-0.212048 0.0513652 0
-0.311796 0.000335968 0
-0.32416 0.0432228 0
-0.273957 0.00133745 0
-0.264287 0.0528392 0
-0.165994 -0.00452851 0
-0.149238 -0.0348868 0
-0.228385 -0.00194697 0
-0.207854 -0.0819159 0
-8.79076e-06 -0.000391367 0
-3.6088e-05 -0.000852829 0
4.51517e-06 -0.000381516 0
-2.30371e-05 -0.000854641 0
-8.79076e-06 -0.000391367 0
-2.84618e-05 -0.000398388 0
-3.6088e-05 -0.000852829 0
-4.16182e-05 -0.0008527 0
-4.32915e-05 -0.000401987 0
-5.24964e-05 -0.00085291 0
-2.84618e-05 -0.000398388 0
-4.16182e-05 -0.0008527 0
-4.32915e-05 -0.000401987 0
-4.9676e-05 -0.000405606 0
-5.24964e-05 -0.00085291 0
-6.17013e-05 -0.000853179 0
-4.9676e-05 -0.000405606 0
-5.56952e-05 -0.00040833 0
-6.17013e-05 -0.000853179 0
-6.74969e-05 -0.000855584 0
-5.56952e-05 -0.00040833 0
-6.12169e-05 -0.000410507 0
-6.74969e-05 -0.000855584 0
-7.03978e-05 -0.00085917 0
-6.12169e-05 -0.000410507 0
-6.44947e-05 -0.000410913 0
-7.03978e-05 -0.00085917 0
-7.593e-05 -0.000864 0
-6.44947e-05 -0.000410913 0
-6.85793e-05 -0.000413386 0
-7.593e-05 -0.000864 0
-8.27165e-05 -0.00086787 0
-6.85793e-05 -0.000413386 0
-7.58702e-05 -0.000415591 0
-8.27165e-05 -0.00086787 0
-8.7215e-05 -0.000871006 0
-7.58702e-05 -0.000415591 0
-8.45674e-05 -0.000417614 0
-8.7215e-05 -0.000871006 0
-9.25398e-05 -0.000873802 0
-8.45674e-05 -0.000417614 0
-9.29854e-05 -0.000418738 0
-9.25398e-05 -0.000873802 0
-9.81818e-05 -0.000875732 0
-9.29854e-05 -0.000418738 0
-0.000101869 -0.000419898 0
-9.81818e-05 -0.000875732 0
-0.000104767 -0.00087715 0
-0.000101869 -0.000419898 0
-0.000109663 -0.000420241 0
-0.000104767 -0.00087715 0
-0.000110213 -0.000878107 0
-0.000109663 -0.000420241 0
-0.000117062 -0.00042059 0
-0.000110213 -0.000878107 0
-0.000116348 -0.000879044 0
-0.000117062 -0.00042059 0
-0.000121475 -0.000420722 0
-0.000116348 -0.000879044 0
-0.00012084 -0.000880339 0
-0.000121475 -0.000420722 0
-0.000122997 -0.000420939 0
-0.00012084 -0.000880339 0
-0.000125783 -0.000882361 0
-0.000122997 -0.000420939 0
-0.000123353 -0.000421671 0
-0.000125783 -0.000882361 0
-0.000128018 -0.000883955 0
-0.000123353 -0.000421671 0
-0.000123675 -0.000422577 0
-0.000128018 -0.000883955 0
-0.000127774 -0.000886286 0
-0.000123675 -0.000422577 0
-0.000121284 -0.000423543 0
-0.000127774 -0.000886286 0
-0.000124599 -0.000888863 0
-0.000121284 -0.000423543 0
-0.000119356 -0.000424323 0
-0.000124599 -0.000888863 0
-0.000121146 -0.000891484 0
-0.000119356 -0.000424323 0
-0.000113727 -0.000424648 0
-0.000121146 -0.000891484 0
-0.000115079 -0.000894291 0
-0.000113727 -0.000424648 0
-0.000107618 -0.000425153 0
-0.000115079 -0.000894291 0
-0.00010898 -0.000896566 0
-0.000107618 -0.000425153 0
-9.81583e-05 -0.000425233 0
-0.00010898 -0.000896566 0
-9.97286e-05 -0.000898338 0
-9.81583e-05 -0.000425233 0
-9.0012e-05 -0.000425223 0
-9.97286e-05 -0.000898338 0
-9.23456e-05 -0.000899125 0
0.1308 -0.126165 0
0.151977 -0.0820231 0
0.198423 -0.194735 0
0.225882 -0.084049 0
0.1308 -0.126165 0
0.09488 -0.0946288 0
0.151977 -0.0820231 0
0.10987 -0.0677899 0
0.09488 -0.0946288 0
0.0743494 -0.0738753 0
0.10987 -0.0677899 0
0.0840108 -0.0578144 0
0.0601145 -0.0602309 0
0.0666381 -0.048798 0
0.0743494 -0.0738753 0
0.0840108 -0.0578144 0
0.0601145 -0.0602309 0
0.049886 -0.0500031 0
0.0666381 -0.048798 0
0.0543085 -0.0420829 0
0.049886 -0.0500031 0
0.0418842 -0.0421709 0
0.0543085 -0.0420829 0
0.0449275 -0.0362443 0
0.0418842 -0.0421709 0
0.035376 -0.0356786 0
0.0449275 -0.0362443 0
0.0374367 -0.0313125 0
0.035376 -0.0356786 0
0.0298641 -0.0302316 0
0.0374367 -0.0313125 0
0.03121 -0.0269067 0
0.0250774 -0.0254601 0
0.0259102 -0.02294 0
0.0298641 -0.0302316 0
0.03121 -0.0269067 0
0.0208947 -0.021312 0
0.0213353 -0.0193863 0
0.0250774 -0.0254601 0
0.0259102 -0.02294 0
0.0208947 -0.021312 0
0.0172236 -0.0176548 0
0.0213353 -0.0193863 0
0.0173848 -0.0161961 0
0.0172236 -0.0176548 0
0.0140533 -0.0145018 0
0.0173848 -0.0161961 0
0.013999 -0.0133956 0
0.0140533 -0.0145018 0
0.0113278 -0.011782 0
0.013999 -0.0133956 0
0.0111206 -0.0109551 0
0.0113278 -0.011782 0
0.00905101 -0.00951092 0
0.0111206 -0.0109551 0
0.00872173 -0.0088931 0
0.00905101 -0.00951092 0
0.0071538 -0.00761544 0
0.00872173 -0.0088931 0
0.00674154 -0.00715794 0
0.0071538 -0.00761544 0
0.005635 -0.00609682 0
0.00674154 -0.00715794 0
0.00515926 -0.00575667 0
0.005635 -0.00609682 0
0.00440332 -0.00486618 0
0.00515926 -0.00575667 0
0.00388486 -0.00462199 0
0.00346609 -0.00391822 0
0.00291472 -0.00375023 0
0.00440332 -0.00486618 0
0.00388486 -0.00462199 0
0.00271968 -0.00316463 0
0.00212154 -0.0030511 0
0.00346609 -0.00391822 0
0.00291472 -0.00375023 0
0.00271968 -0.00316463 0
0.00218289 -0.0026317 0
0.00212154 -0.0030511 0
0.00156686 -0.00253218 0
0.0017379 -0.00220137 0
0.00111774 -0.00211071 0
0.00218289 -0.0026317 0
0.00156686 -0.00253218 0
0.00144314 -0.00193544 0
0.000875618 -0.00183037 0
0.0017379 -0.00220137 0
0.00111774 -0.00211071 0
0.00144314 -0.00193544 0
0.00116783 -0.00166082 0
0.000875618 -0.00183037 0
0.000626268 -0.00162198 0
0.00107092 -0.00154915 0
0.000518306 -0.001533 0
0.00116783 -0.00166082 0
0.000626268 -0.00162198 0
0.00107092 -0.00154915 0
0.000939208 -0.00141762 0
0.000518306 -0.001533 0
0.000354861 -0.00139753 0
0.000939208 -0.00141762 0
0.000928739 -0.00142361 0
0.000354861 -0.00139753 0
0.000410712 -0.00138865 0
0.000928739 -0.00142361 0
0.000758179 -0.00125477 0
0.000410712 -0.00138865 0
0.000304209 -0.0011699 0
0.000758179 -0.00125477 0
0.000582044 -0.00104685 0
0.000304209 -0.0011699 0
0.000515773 -0.0013086 0
0.000582044 -0.00104685 0
0.000414381 -0.000730926 0
0.000515773 -0.0013086 0
0.000288943 -0.000674836 0
0.000414381 -0.000730926 0
0.000207728 -0.000491063 0
0.000288943 -0.000674836 0
0.000187069 -0.000976451 0
0.000207728 -0.000491063 0
0.000465604 -0.00028355 0
0.000187069 -0.000976451 0
0.000343993 -0.000774419 0
0.000465604 -0.00028355 0
0.000359762 -0.000371906 0
0.000343993 -0.000774419 0
-7.02873e-05 -0.00084838 0
0.000359762 -0.000371906 0
0.000250771 -0.000448786 0
-7.02873e-05 -0.00084838 0
0.000166946 -0.000792557 0
0.000250771 -0.000448786 0
-4.38623e-05 -0.000401876 0
0.000166946 -0.000792557 0
9.44976e-06 -0.000902516 0
-9.97286e-05 -0.000898338 0
-9.23456e-05 -0.000899125 0
-0.000101548 -0.000544048 0
-9.48762e-05 -0.000547413 0
-0.000101548 -0.000544048 0
-9.48762e-05 -0.000547413 0
-0.00010638 -0.000913609 0
-0.000100417 -0.000916335 0
-0.00010638 -0.000913609 0
-0.000100417 -0.000916335 0
-0.000113376 -0.000660123 0
-0.000106826 -0.000664232 0
-0.000113376 -0.000660123 0
-0.000106826 -0.000664232 0
-0.000121115 -0.000950396 0
-0.000116699 -0.000955628 0
-0.000121115 -0.000950396 0
-0.000116699 -0.000955628 0
-0.00013162 -0.000778838 0
-0.000126438 -0.000784633 0
-0.00013162 -0.000778838 0
-0.000126438 -0.000784633 0
-0.000142033 -0.00101363 0
-0.000138318 -0.00102081 0
-0.000155665 -0.000913227 0
-0.000142033 -0.00101363 0
-0.000151472 -0.000921369 0
-0.000138318 -0.00102081 0
-0.000155665 -0.000913227 0
-0.000151472 -0.000921369 0
-0.000170466 -0.0011126 0
-0.000166861 -0.00112193 0
-0.000170466 -0.0011126 0
-0.000166861 -0.00112193 0
-0.000188432 -0.00107617 0
-0.000184832 -0.00108721 0
-0.000188432 -0.00107617 0
-0.000184832 -0.00108721 0
-0.000209772 -0.00125361 0
-0.000207193 -0.00126611 0
-0.000209772 -0.00125361 0
-0.000207193 -0.00126611 0
-0.000235146 -0.00127183 0
-0.000234016 -0.00128684 0
-0.000235146 -0.00127183 0
-0.000234016 -0.00128684 0
-0.000266531 -0.00142721 0
-0.000270113 -0.00144477 0
-0.000266531 -0.00142721 0
-0.000270113 -0.00144477 0
-0.000303006 -0.00147904 0
-0.000313515 -0.0014993 0
-0.000303006 -0.00147904 0
-0.000313515 -0.0014993 0
-0.000345684 -0.00159111 0
-0.000368362 -0.00161408 0
-0.000345684 -0.00159111 0
-0.000368362 -0.00161408 0
-0.000390348 -0.00163979 0
-0.000429515 -0.00166348 0
-0.000390348 -0.00163979 0
-0.000429515 -0.00166348 0
-0.000433198 -0.00167068 0
-0.000492737 -0.00169265 0
-0.000433198 -0.00167068 0
-0.000492737 -0.00169265 0
-0.000464321 -0.00168026 0
-0.000544059 -0.00169539 0
-0.000464321 -0.00168026 0
-0.000544059 -0.00169539 0
-0.000475166 -0.00160542 0
-0.000568141 -0.00160917 0
-0.000475166 -0.00160542 0
-0.000568141 -0.00160917 0
-0.000458896 -0.00158304 0
-0.000550791 -0.00157211 0
-0.000458896 -0.00158304 0
-0.000550791 -0.00157211 0
-0.000417013 -0.00142799 0
-0.000493772 -0.0014065 0
-0.000417013 -0.00142799 0
-0.000493772 -0.0014065 0
-0.000358907 -0.00143346 0
-0.000414288 -0.00140545 0
-0.000358907 -0.00143346 0
-0.000414288 -0.00140545 0
-0.000293479 -0.00123886 0
-0.000327966 -0.00121077 0
-0.000293479 -0.00123886 0
-0.000327966 -0.00121077 0
-0.000233923 -0.00132689 0
-0.000251335 -0.00130023 0
-0.000233923 -0.00132689 0
-0.000251335 -0.00130023 0
-0.000176998 -0.00109565 0
-0.000182988 -0.00107509 0
-0.000176998 -0.00109565 0
-0.000182988 -0.00107509 0
-0.000139405 -0.00129722 0
-0.000140688 -0.00127873 0
-0.000139405 -0.00129722 0
-0.000140688 -0.00127873 0
-9.93861e-05 -0.000997829 0
-9.62971e-05 -0.000982664 0
-9.93861e-05 -0.000997829 0
-9.62971e-05 -0.000982664 0
-7.46289e-05 -0.00135385 0
-7.22585e-05 -0.00134117 0
-7.46289e-05 -0.00135385 0
-7.22585e-05 -0.00134117 0
-4.54602e-05 -0.000922516 0
-4.08514e-05 -0.000913947 0
-4.54602e-05 -0.000922516 0
-4.08514e-05 -0.000913947 0
-3.93747e-05 -0.00148681 0
-3.61694e-05 -0.00148273 0
-3.93747e-05 -0.00148681 0
-3.61694e-05 -0.00148273 0
-3.18931e-05 -0.000827395 0
-2.94456e-05 -0.000824031 0
-3.18931e-05 -0.000827395 0
-2.94456e-05 -0.000824031 0
-3.3639e-05 -0.00169323 0
-3.05133e-05 -0.00169287 0
0.225882 -0.084049 0
0.200239 -0.00163201 0
0.363219 -0.101534 0
0.25129 0.0491484 0
0.151977 -0.0820231 0
0.146981 -0.0248542 0
0.225882 -0.084049 0
0.200239 -0.00163201 0
0.151977 -0.0820231 0
0.10987 -0.0677899 0
0.146981 -0.0248542 0
0.111588 -0.0340795 0
0.10987 -0.0677899 0
0.0840108 -0.0578144 0
0.111588 -0.0340795 0
0.0863472 -0.0344292 0
0.0666381 -0.048798 0
0.0692837 -0.0334538 0
0.0840108 -0.0578144 0
0.0863472 -0.0344292 0
0.0666381 -0.048798 0
0.0543085 -0.0420829 0
0.0692837 -0.0334538 0
0.0564035 -0.0306191 0
0.0543085 -0.0420829 0
0.0449275 -0.0362443 0
0.0564035 -0.0306191 0
0.0466472 -0.0279448 0
0.0449275 -0.0362443 0
0.0374367 -0.0313125 0
0.0466472 -0.0279448 0
0.0387585 -0.0248457 0
0.0374367 -0.0313125 0
0.03121 -0.0269067 0
0.0387585 -0.0248457 0
0.0322059 -0.0219243 0
0.0259102 -0.02294 0
0.0266471 -0.0189846 0
0.03121 -0.0269067 0
0.0322059 -0.0219243 0
0.0213353 -0.0193863 0
0.0218339 -0.0162672 0
0.0259102 -0.02294 0
0.0266471 -0.0189846 0
0.0213353 -0.0193863 0
0.0173848 -0.0161961 0
0.0218339 -0.0162672 0
0.0177154 -0.0136914 0
0.0173848 -0.0161961 0
0.013999 -0.0133956 0
0.0177154 -0.0136914 0
0.0141731 -0.0113781 0
0.013999 -0.0133956 0
0.0111206 -0.0109551 0
0.0141731 -0.0113781 0
0.0112019 -0.00930811 0
0.0111206 -0.0109551 0
0.00872173 -0.0088931 0
0.0112019 -0.00930811 0
0.00872442 -0.00752624 0
0.00872173 -0.0088931 0
0.00674154 -0.00715794 0
0.00872442 -0.00752624 0
0.00669824 -0.00601737 0
0.00674154 -0.00715794 0
0.00515926 -0.00575667 0
0.00669824 -0.00601737 0
0.00506258 -0.00478238 0
0.00515926 -0.00575667 0
0.00388486 -0.00462199 0
0.00506258 -0.00478238 0
0.00376701 -0.00377696 0
0.00291472 -0.00375023 0
0.00278378 -0.00296841 0
0.00388486 -0.00462199 0
0.00376701 -0.00377696 0
0.00212154 -0.0030511 0
0.00202701 -0.0023453 0
0.00291472 -0.00375023 0
0.00278378 -0.00296841 0
0.00212154 -0.0030511 0
0.00156686 -0.00253218 0
0.00202701 -0.0023453 0
0.00148298 -0.00187743 0
0.00111774 -0.00211071 0
0.00103637 -0.00156159 0
0.00156686 -0.00253218 0
0.00148298 -0.00187743 0
0.000875618 -0.00183037 0
0.000739682 -0.00132646 0
0.00111774 -0.00211071 0
0.00103637 -0.00156159 0
0.000875618 -0.00183037 0
0.000626268 -0.00162198 0
0.000739682 -0.00132646 0
0.000438735 -0.00110236 0
0.000518306 -0.001533 0
0.00033278 -0.000932697 0
0.000626268 -0.00162198 0
0.000438735 -0.00110236 0
0.000518306 -0.001533 0