# vtk DataFile Version 3.0
#This file was generated by the deal.II library on 2016/12/20 at 10:56:38
ASCII
DATASET UNSTRUCTURED_GRID

POINTS 7216 double
-1 0.5 0
-0.978723 0.478723 0
-0.970149 0.5 0
-0.964976 0.485465 0
-0.970149 0.5 0
-0.964976 0.485465 0
-0.940299 0.5 0
-0.945882 0.477585 0
0.12 -0.5 0
0.15 -0.5 0
0.119014 -0.4708 0
0.15 -0.471429 0
0.11755 -0.441479 0
0.119014 -0.4708 0
0.15 -0.442857 0
0.15 -0.471429 0
0.117242 -0.412206 0
0.11755 -0.441479 0
0.15 -0.414286 0
0.15 -0.442857 0
0.118129 -0.383064 0
0.117242 -0.412206 0
0.15 -0.385714 0
0.15 -0.414286 0
0.12021 -0.354337 0
0.118129 -0.383064 0
0.15 -0.357143 0
0.15 -0.385714 0
0.121793 -0.32584 0
0.12021 -0.354337 0
0.15 -0.328571 0
0.15 -0.357143 0
0.122717 -0.296869 0
0.121793 -0.32584 0
0.15 -0.3 0
0.15 -0.328571 0
0.123759 -0.266752 0
0.122717 -0.296869 0
0.153091 -0.267708 0
0.15 -0.3 0
0.18456 -0.26795 0
0.153091 -0.267708 0
0.183333 -0.3 0
0.15 -0.3 0
0.216606 -0.268111 0
0.18456 -0.26795 0
0.216667 -0.3 0
0.183333 -0.3 0
0.24835 -0.26841 0
0.216606 -0.268111 0
0.25 -0.3 0
0.216667 -0.3 0
0.278782 -0.268564 0
0.24835 -0.26841 0
0.279437 -0.298917 0
0.25 -0.3 0
0.279638 -0.328111 0
0.279437 -0.298917 0
0.25 -0.328571 0
0.25 -0.3 0
0.27971 -0.356801 0
0.279638 -0.328111 0
0.25 -0.357143 0
0.25 -0.328571 0
0.279677 -0.385395 0
0.27971 -0.356801 0
0.25 -0.385714 0
0.25 -0.357143 0
0.279641 -0.413938 0
0.279677 -0.385395 0
0.25 -0.414286 0
0.25 -0.385714 0
0.279666 -0.442534 0
0.279641 -0.413938 0
0.25 -0.442857 0
0.25 -0.414286 0
0.279811 -0.471266 0
0.279666 -0.442534 0
0.25 -0.471429 0
0.25 -0.442857 0
0.28 -0.5 0
0.279811 -0.471266 0
0.25 -0.5 0
0.25 -0.471429 0
0.970149 0.5 0
0.970096 0.46978 0
1 0.5 0
1 0.469697 0
0.940299 0.5 0
0.940231 0.46984 0
0.970149 0.5 0
0.970096 0.46978 0
0.910448 0.5 0
0.910371 0.469856 0
0.940299 0.5 0
0.940231 0.46984 0
0.880597 0.5 0
0.880527 0.469909 0
0.910448 0.5 0
0.910371 0.469856 0
0.850746 0.5 0
0.850684 0.469926 0
0.880597 0.5 0
0.880527 0.469909 0
0.820896 0.5 0
0.820842 0.469978 0
0.850746 0.5 0
0.850684 0.469926 0
0.791045 0.5 0
0.791001 0.470016 0
0.820896 0.5 0
0.820842 0.469978 0
0.761194 0.5 0
0.761159 0.470055 0
0.791045 0.5 0
0.791001 0.470016 0
0.731343 0.5 0
0.731316 0.470091 0
0.761194 0.5 0
0.761159 0.470055 0
0.701493 0.5 0
0.701472 0.470118 0
0.731343 0.5 0
0.731316 0.470091 0
0.671642 0.5 0
0.671627 0.470134 0
0.701493 0.5 0
0.701472 0.470118 0
0.641791 0.5 0
0.64178 0.470142 0
0.671642 0.5 0
0.671627 0.470134 0
0.641791 0.5 0
0.61194 0.5 0
0.64178 0.470142 0
0.611934 0.470065 0
0.58209 0.5 0
0.582089 0.470002 0
0.61194 0.5 0
0.611934 0.470065 0
0.552239 0.5 0
0.552248 0.469853 0
0.58209 0.5 0
0.582089 0.470002 0
0.522388 0.5 0
0.522413 0.469718 0
0.552239 0.5 0
0.552248 0.469853 0
0.492537 0.5 0
0.492577 0.469656 0
0.522388 0.5 0
0.522413 0.469718 0
0.462687 0.5 0
0.462743 0.469571 0
0.492537 0.5 0
0.492577 0.469656 0
0.432836 0.5 0
0.432895 0.46963 0
0.462687 0.5 0
0.462743 0.469571 0
0.402985 0.5 0
0.403046 0.469669 0
0.432836 0.5 0
0.432895 0.46963 0
0.373134 0.5 0
0.373191 0.469745 0
0.402985 0.5 0
0.403046 0.469669 0
0.343284 0.5 0
0.343335 0.469723 0
0.373134 0.5 0
0.373191 0.469745 0
0.313433 0.5 0
0.313478 0.469741 0
0.343284 0.5 0
0.343335 0.469723 0
0.283582 0.5 0
0.283622 0.469783 0
0.313433 0.5 0
0.313478 0.469741 0
0.253731 0.5 0
0.253768 0.469742 0
0.283582 0.5 0
0.283622 0.469783 0
0.223881 0.5 0
0.223918 0.469737 0
0.253731 0.5 0
0.253768 0.469742 0
0.19403 0.5 0
0.194064 0.46981 0
0.223881 0.5 0
0.223918 0.469737 0
0.164179 0.5 0
0.16421 0.469881 0
0.19403 0.5 0
0.194064 0.46981 0
0.134328 0.5 0
0.134355 0.46994 0
0.164179 0.5 0
0.16421 0.469881 0
0.104478 0.5 0
0.1045 0.469997 0
0.134328 0.5 0
0.134355 0.46994 0
0.074627 0.5 0
0.074645 0.470051 0
0.104478 0.5 0
0.1045 0.469997 0
0.044776 0.5 0
0.04479 0.470093 0
0.074627 0.5 0
0.074645 0.470051 0
0.014925 0.5 0
0.014935 0.47012 0
0.044776 0.5 0
0.04479 0.470093 0
-0.014925 0.5 0
-0.014918 0.470135 0
0.014925 0.5 0
0.014935 0.47012 0
-0.044776 0.5 0
-0.044771 0.470143 0
-0.014925 0.5 0
-0.014918 0.470135 0
-0.074627 0.5 0
-0.074623 0.470146 0
-0.044776 0.5 0
-0.044771 0.470143 0
-0.104478 0.5 0
-0.104496 0.469979 0
-0.074627 0.5 0
-0.074623 0.470146 0
-0.134328 0.5 0
-0.134359 0.469935 0
-0.104478 0.5 0
-0.104496 0.469979 0
-0.164179 0.5 0
-0.164225 0.469839 0
-0.134328 0.5 0
-0.134359 0.469935 0
-0.164179 0.5 0
-0.19403 0.5 0
-0.164225 0.469839 0
-0.194083 0.469797 0
-0.223881 0.5 0
-0.22394 0.469753 0
-0.19403 0.5 0
-0.194083 0.469797 0
-0.253731 0.5 0
-0.253798 0.469819 0
-0.223881 0.5 0
-0.22394 0.469753 0
-0.283582 0.5 0
-0.283647 0.470019 0
-0.253731 0.5 0
-0.253798 0.469819 0
-0.313433 0.5 0
-0.313491 0.470151 0
-0.283582 0.5 0
-0.283647 0.470019 0
-0.343284 0.5 0
-0.343348 0.470381 0
-0.313433 0.5 0
-0.313491 0.470151 0
-0.343284 0.5 0
-0.373134 0.5 0
-0.343348 0.470381 0
-0.373195 0.470395 0
-0.373134 0.5 0
-0.402985 0.5 0
-0.373195 0.470395 0
-0.403049 0.470404 0
-0.432836 0.5 0
-0.432937 0.470297 0
-0.402985 0.5 0
-0.403049 0.470404 0
-0.462687 0.5 0
-0.462848 0.469995 0
-0.432836 0.5 0
-0.432937 0.470297 0
-0.492537 0.5 0
-0.492807 0.469765 0
-0.462687 0.5 0
-0.462848 0.469995 0
-0.522388 0.5 0
-0.52276 0.46958 0
-0.492537 0.5 0
-0.492807 0.469765 0
-0.552239 0.5 0
-0.55273 0.469652 0
-0.522388 0.5 0
-0.52276 0.46958 0
-0.58209 0.5 0
-0.582662 0.469731 0
-0.552239 0.5 0
-0.55273 0.469652 0
-0.61194 0.5 0
-0.612594 0.469999 0
-0.58209 0.5 0
-0.582662 0.469731 0
-0.641791 0.5 0
-0.642647 0.470419 0
-0.61194 0.5 0
-0.612594 0.469999 0
-0.671642 0.5 0
-0.672638 0.470543 0
-0.641791 0.5 0
-0.642647 0.470419 0
-0.701493 0.5 0
-0.702968 0.4698 0
-0.671642 0.5 0
-0.672638 0.470543 0
-0.820896 0.5 0
-0.822797 0.47207 0
-0.791045 0.5 0
-0.795702 0.469563 0
0.31 -0.5 0
0.309694 -0.471123 0
0.28 -0.5 0
0.279811 -0.471266 0
0.31 -0.5 0
0.34 -0.5 0
0.309694 -0.471123 0
0.339686 -0.471033 0
0.37 -0.5 0
0.369721 -0.471055 0
0.34 -0.5 0
0.339686 -0.471033 0
0.37 -0.5 0
0.4 -0.5 0
0.369721 -0.471055 0
0.399756 -0.470957 0
0.4 -0.5 0
0.43 -0.5 0
0.399756 -0.470957 0
0.429805 -0.470822 0
0.43 -0.5 0
0.46 -0.5 0
0.429805 -0.470822 0
0.459835 -0.470712 0
0.46 -0.5 0
0.49 -0.5 0
0.459835 -0.470712 0
0.489873 -0.470554 0
0.49 -0.5 0
0.52 -0.5 0
0.489873 -0.470554 0
0.519906 -0.470379 0
0.52 -0.5 0
0.55 -0.5 0
0.519906 -0.470379 0
0.54993 -0.470248 0
0.55 -0.5 0
0.58 -0.5 0
0.54993 -0.470248 0
0.579948 -0.470155 0
0.58 -0.5 0
0.61 -0.5 0
0.579948 -0.470155 0
0.609962 -0.470091 0
0.61 -0.5 0
0.64 -0.5 0
0.609962 -0.470091 0
0.639972 -0.47005 0
0.64 -0.5 0
0.67 -0.5 0
0.639972 -0.47005 0
0.66998 -0.470026 0
0.67 -0.5 0
0.7 -0.5 0
0.66998 -0.470026 0
0.699986 -0.470013 0
0.7 -0.5 0
0.73 -0.5 0
0.699986 -0.470013 0
0.72999 -0.470006 0
0.73 -0.5 0
0.76 -0.5 0
0.72999 -0.470006 0
0.759994 -0.470003 0
0.76 -0.5 0
0.79 -0.5 0
0.759994 -0.470003 0
0.78998 -0.469916 0
0.79 -0.5 0
0.82 -0.5 0
0.78998 -0.469916 0
0.819956 -0.469877 0
0.82 -0.5 0
0.85 -0.5 0
0.819956 -0.469877 0
0.849929 -0.469833 0
0.85 -0.5 0
0.88 -0.5 0
0.849929 -0.469833 0
0.879924 -0.469805 0
0.88 -0.5 0
0.91 -0.5 0
0.879924 -0.469805 0
0.909913 -0.469792 0
0.91 -0.5 0
0.94 -0.5 0
0.909913 -0.469792 0
0.939922 -0.469775 0
0.94 -0.5 0
0.97 -0.5 0
0.939922 -0.469775 0
0.969956 -0.46974 0
0.97 -0.5 0
1 -0.5 0
0.969956 -0.46974 0
1 -0.469697 0
-0.744681 0.244681 0
-0.723404 0.223404 0
-0.723868 0.265704 0
-0.702394 0.245107 0
-0.702128 0.202128 0
-0.680976 0.2243 0
-0.723404 0.223404 0
-0.702394 0.245107 0
-0.702128 0.202128 0
-0.680851 0.180851 0
-0.680976 0.2243 0
-0.659597 0.203254 0
-0.680851 0.180851 0
-0.659574 0.159574 0
-0.659597 0.203254 0
-0.638233 0.18203 0
-0.638298 0.138298 0
-0.616915 0.16063 0
-0.659574 0.159574 0
-0.638233 0.18203 0
-0.617021 0.117021 0
-0.595665 0.139192 0
-0.638298 0.138298 0
-0.616915 0.16063 0
-0.617021 0.117021 0
-0.595745 0.095745 0
-0.595665 0.139192 0
-0.574431 0.117764 0
-0.595745 0.095745 0
-0.574468 0.074468 0
-0.574431 0.117764 0
-0.553204 0.096309 0
-0.553191 0.053191 0
-0.53184 0.075023 0
-0.574468 0.074468 0
-0.553204 0.096309 0
-0.553191 0.053191 0
-0.531915 0.031915 0
-0.53184 0.075023 0
-0.510492 0.053733 0
-0.531915 0.031915 0
-0.510638 0.010638 0
-0.510492 0.053733 0
-0.489127 0.032461 0
-0.510638 0.010638 0
-0.489362 -0.010638 0
-0.489127 0.032461 0
-0.467791 0.011178 0
-0.489362 -0.010638 0
-0.468085 -0.031915 0
-0.467791 0.011178 0
-0.446536 -0.010172 0
-0.446809 -0.053191 0
-0.42524 -0.031466 0
-0.468085 -0.031915 0
-0.446536 -0.010172 0
-0.425532 -0.074468 0
-0.404012 -0.052824 0
-0.446809 -0.053191 0
-0.42524 -0.031466 0
-0.425532 -0.074468 0
-0.404255 -0.095745 0
-0.404012 -0.052824 0
-0.382783 -0.074175 0
-0.404255 -0.095745 0
-0.382979 -0.117021 0
-0.382783 -0.074175 0
-0.361545 -0.095511 0
-0.382979 -0.117021 0
-0.361702 -0.138298 0
-0.361545 -0.095511 0
-0.340288 -0.116831 0
-0.361702 -0.138298 0
-0.340426 -0.159574 0
-0.340288 -0.116831 0
-0.319034 -0.138159 0
-0.340426 -0.159574 0
-0.319149 -0.180851 0
-0.319034 -0.138159 0
-0.297766 -0.159484 0
-0.319149 -0.180851 0
-0.297872 -0.202128 0
-0.297766 -0.159484 0
-0.276489 -0.180797 0
-0.297872 -0.202128 0
-0.276596 -0.223404 0
-0.276489 -0.180797 0
-0.255087 -0.202105 0
-0.255319 -0.244681 0
-0.233674 -0.223466 0
-0.276596 -0.223404 0
-0.255087 -0.202105 0
-0.234043 -0.265957 0
-0.212119 -0.244916 0
-0.255319 -0.244681 0
-0.233674 -0.223466 0
-0.234043 -0.265957 0
-0.212766 -0.287234 0
-0.212119 -0.244916 0
-0.190657 -0.266392 0
-0.191489 -0.308511 0
-0.169261 -0.287934 0
-0.212766 -0.287234 0
-0.190657 -0.266392 0
-0.170213 -0.329787 0
-0.147854 -0.309624 0
-0.191489 -0.308511 0
-0.169261 -0.287934 0
-0.170213 -0.329787 0
-0.148936 -0.351064 0
-0.147854 -0.309624 0
-0.126431 -0.331364 0
-0.12766 -0.37234 0
-0.105256 -0.353368 0
-0.148936 -0.351064 0
-0.126431 -0.331364 0
-0.12766 -0.37234 0
-0.106383 -0.393617 0
-0.105256 -0.353368 0
-0.083924 -0.375263 0
-0.106383 -0.393617 0
-0.085106 -0.414894 0
-0.083924 -0.375263 0
-0.062097 -0.396824 0
[...]
POINT_DATA 7216
VECTORS momentum double
0.00113406 -0.00111201 0
0.00561447 -0.0060463 0
0.0133587 -0.00129342 0
0.0164064 -0.0041535 0
0.0133587 -0.00129342 0
0.0164064 -0.0041535 0
0.0283149 -0.00036211 0
0.030976 -0.00478049 0
-0.000157711 -0.000388667 0
6.14717e-05 -0.000379923 0
-6.08136e-05 -0.000924391 0
6.43507e-05 -0.000909968 0
-0.000225631 -0.00053342 0
-6.08136e-05 -0.000924391 0
6.66716e-05 -0.000551383 0
6.43507e-05 -0.000909968 0
-5.54341e-06 -0.000912329 0
-0.000225631 -0.00053342 0
1.01095e-05 -0.00104031 0
6.66716e-05 -0.000551383 0
2.54733e-05 -0.000477293 0
-5.54341e-06 -0.000912329 0
-3.16944e-05 -0.000480121 0
1.01095e-05 -0.00104031 0
8.19535e-05 -0.00062101 0
2.54733e-05 -0.000477293 0
-2.437e-06 -0.00073598 0
-3.16944e-05 -0.000480121 0
9.90711e-07 -0.00019357 0
8.19535e-05 -0.00062101 0
-0.000115019 -8.22627e-05 0
-2.437e-06 -0.00073598 0
0.000368114 -0.000369281 0
9.90711e-07 -0.00019357 0
0.000230844 -0.000383686 0
-0.000115019 -8.22627e-05 0
9.66292e-05 -7.23459e-05 0
0.000368114 -0.000369281 0
-1.63699e-06 -0.000480329 0
0.000230844 -0.000383686 0
-8.29276e-06 -0.00101886 0
-1.63699e-06 -0.000480329 0
0.000460372 -0.000505641 0
0.000230844 -0.000383686 0
-2.78147e-05 -0.000979309 0
-8.29276e-06 -0.00101886 0
-0.000562178 -0.000498799 0
0.000460372 -0.000505641 0
-9.39023e-05 -0.000453309 0
-2.78147e-05 -0.000979309 0
-0.000318596 -0.000342766 0
-0.000562178 -0.000498799 0
-0.000163109 -6.81965e-05 0
-9.39023e-05 -0.000453309 0
-0.000394489 -0.000349194 0
-0.000318596 -0.000342766 0
2.61838e-05 -0.00014668 0
-0.000394489 -0.000349194 0
7.32099e-05 6.64766e-05 0
-0.000318596 -0.000342766 0
-8.92839e-05 -0.000551381 0
2.61838e-05 -0.00014668 0
-4.12971e-05 -0.000650664 0
7.32099e-05 6.64766e-05 0
1.72323e-05 -0.000299608 0
-8.92839e-05 -0.000551381 0
1.62269e-05 -0.000219289 0
-4.12971e-05 -0.000650664 0
-4.57258e-05 -0.000725576 0
1.72323e-05 -0.000299608 0
-1.2581e-05 -0.000766574 0
1.62269e-05 -0.000219289 0
1.20626e-05 -0.000355693 0
-4.57258e-05 -0.000725576 0
6.73152e-06 -0.000324995 0
-1.2581e-05 -0.000766574 0
-2.70578e-05 -0.000826993 0
1.20626e-05 -0.000355693 0
-5.89703e-06 -0.000841129 0
6.73152e-06 -0.000324995 0
1.49124e-05 -0.000367767 0
-2.70578e-05 -0.000826993 0
4.58421e-06 -0.000354869 0
-5.89703e-06 -0.000841129 0
-1.8919e-05 -0.000666352 0
-1.049e-05 -0.00174946 0
-1.9079e-05 -0.000666675 0
-7.83113e-06 -0.00175208 0
-1.68311e-05 -0.000666732 0
-1.11868e-05 -0.00174671 0
-1.8919e-05 -0.000666352 0
-1.049e-05 -0.00174946 0
-1.60576e-05 -0.000666264 0
-9.22983e-06 -0.00174391 0
-1.68311e-05 -0.000666732 0
-1.11868e-05 -0.00174671 0
-1.52966e-05 -0.000665223 0
-8.51979e-06 -0.00174109 0
-1.60576e-05 -0.000666264 0
-9.22983e-06 -0.00174391 0
-1.44504e-05 -0.000664536 0
-6.63984e-06 -0.00173863 0
-1.52966e-05 -0.000665223 0
-8.51979e-06 -0.00174109 0
-1.31557e-05 -0.000662985 0
-4.8677e-06 -0.00173634 0
-1.44504e-05 -0.000664536 0
-6.63984e-06 -0.00173863 0
-1.02772e-05 -0.000662206 0
-2.34539e-06 -0.00173432 0
-1.31557e-05 -0.000662985 0
-4.8677e-06 -0.00173634 0
-7.31536e-06 -0.000660561 0
1.17296e-06 -0.00173327 0
-1.02772e-05 -0.000662206 0
-2.34539e-06 -0.00173432 0
-2.06476e-06 -0.000659267 0
4.14859e-06 -0.00173263 0
-7.31536e-06 -0.000660561 0
1.17296e-06 -0.00173327 0
3.67866e-06 -0.000658458 0
8.82194e-06 -0.00173307 0
-2.06476e-06 -0.000659267 0
4.14859e-06 -0.00173263 0
1.20945e-05 -0.000657375 0
1.39735e-05 -0.00173344 0
3.67866e-06 -0.000658458 0
8.82194e-06 -0.00173307 0
2.23925e-05 -0.000656658 0
1.60994e-05 -0.00173564 0
1.20945e-05 -0.000657375 0
1.39735e-05 -0.00173344 0
2.23925e-05 -0.000656658 0
3.0159e-05 -0.000657497 0
1.60994e-05 -0.00173564 0
1.92932e-05 -0.00173837 0
3.81903e-05 -0.000657767 0
2.01209e-05 -0.0017434 0
3.0159e-05 -0.000657497 0
1.92932e-05 -0.00173837 0
4.22653e-05 -0.000660523 0
1.96713e-05 -0.00174737 0
3.81903e-05 -0.000657767 0
2.01209e-05 -0.0017434 0
3.93145e-05 -0.000663354 0
2.35759e-05 -0.00174901 0
4.22653e-05 -0.000660523 0
1.96713e-05 -0.00174737 0
3.82097e-05 -0.000664678 0
2.59821e-05 -0.00174862 0
3.93145e-05 -0.000663354 0
2.35759e-05 -0.00174901 0
3.08751e-05 -0.000667091 0
2.59411e-05 -0.00174745 0
3.82097e-05 -0.000664678 0
2.59821e-05 -0.00174862 0
1.83472e-05 -0.000667968 0
2.36527e-05 -0.0017452 0
3.08751e-05 -0.000667091 0
2.59411e-05 -0.00174745 0
8.53343e-06 -0.000667195 0
1.8724e-05 -0.00174105 0
1.83472e-05 -0.000667968 0
2.36527e-05 -0.0017452 0
2.75032e-06 -0.000665498 0
9.53739e-06 -0.00173852 0
8.53343e-06 -0.000667195 0
1.8724e-05 -0.00174105 0
8.91334e-09 -0.000665741 0
1.86185e-06 -0.00173472 0
2.75032e-06 -0.000665498 0
9.53739e-06 -0.00173852 0
-5.6035e-06 -0.00066557 0
-2.13771e-06 -0.00173519 0
8.91334e-09 -0.000665741 0
1.86185e-06 -0.00173472 0
-7.12745e-06 -0.000665604 0
-7.52982e-06 -0.00173355 0
-5.6035e-06 -0.00066557 0
-2.13771e-06 -0.00173519 0
-5.77483e-06 -0.000667043 0
-1.1755e-05 -0.00172991 0
-7.12745e-06 -0.000665604 0
-7.52982e-06 -0.00173355 0
-1.08801e-05 -0.000670663 0
-1.53449e-05 -0.00172478 0
-5.77483e-06 -0.000667043 0
-1.1755e-05 -0.00172991 0
-2.00772e-05 -0.00067482 0
-1.44418e-05 -0.00171789 0
-1.08801e-05 -0.000670663 0
-1.53449e-05 -0.00172478 0
-2.57904e-05 -0.000673665 0
-1.18619e-05 -0.00171554 0
-2.00772e-05 -0.00067482 0
-1.44418e-05 -0.00171789 0
-2.68624e-05 -0.000670919 0
-1.14364e-05 -0.00171517 0
-2.57904e-05 -0.000673665 0
-1.18619e-05 -0.00171554 0
-2.61424e-05 -0.00066694 0
-9.68287e-06 -0.00171732 0
-2.68624e-05 -0.000670919 0
-1.14364e-05 -0.00171517 0
-2.17733e-05 -0.00066209 0
-5.63804e-06 -0.00172051 0
-2.61424e-05 -0.00066694 0
-9.68287e-06 -0.00171732 0
-1.41872e-05 -0.000657401 0
-3.45455e-06 -0.00172407 0
-2.17733e-05 -0.00066209 0
-5.63804e-06 -0.00172051 0
-2.48144e-06 -0.000656032 0
1.26347e-06 -0.0017236 0
-1.41872e-05 -0.000657401 0
-3.45455e-06 -0.00172407 0
6.74705e-06 -0.000655985 0
8.92459e-06 -0.00172441 0
-2.48144e-06 -0.000656032 0
1.26347e-06 -0.0017236 0
2.24281e-05 -0.000656076 0
1.98156e-05 -0.0017229 0
6.74705e-06 -0.000655985 0
8.92459e-06 -0.00172441 0
3.42221e-05 -0.000657363 0
1.91519e-05 -0.00172265 0
2.24281e-05 -0.000656076 0
1.98156e-05 -0.0017229 0
3.88569e-05 -0.000660814 0
1.90032e-05 -0.00171981 0
3.42221e-05 -0.000657363 0
1.91519e-05 -0.00172265 0
2.56004e-05 -0.000665243 0
5.18465e-06 -0.00171491 0
3.88569e-05 -0.000660814 0
1.90032e-05 -0.00171981 0
1.86309e-05 -0.000670881 0
-3.83689e-06 -0.00170787 0
2.56004e-05 -0.000665243 0
5.18465e-06 -0.00171491 0
1.86309e-05 -0.000670881 0
-1.7442e-05 -0.000676401 0
-3.83689e-06 -0.00170787 0
-2.85062e-05 -0.00170091 0
-3.0552e-05 -0.000675496 0
-2.04385e-05 -0.00170414 0
-1.7442e-05 -0.000676401 0
-2.85062e-05 -0.00170091 0
-7.2976e-05 -0.000671054 0
-4.18117e-05 -0.00171131 0
-3.0552e-05 -0.000675496 0
-2.04385e-05 -0.00170414 0
-4.71379e-05 -0.000663757 0
-8.62082e-06 -0.00171119 0
-7.2976e-05 -0.000671054 0
-4.18117e-05 -0.00171131 0
-8.67944e-05 -0.000656196 0
-4.97862e-05 -0.0017227 0
-4.71379e-05 -0.000663757 0
-8.62082e-06 -0.00171119 0
-1.30845e-05 -0.000649124 0
1.7286e-05 -0.00172155 0
-8.67944e-05 -0.000656196 0
-4.97862e-05 -0.0017227 0
-1.30845e-05 -0.000649124 0
-0.000108976 -0.000639398 0
1.7286e-05 -0.00172155 0
-9.6033e-05 -0.00173638 0
-0.000108976 -0.000639398 0
-4.31611e-05 -0.000639529 0
-9.6033e-05 -0.00173638 0
-5.52361e-05 -0.00170351 0
-0.000416979 -0.000638512 0
-0.000439142 -0.00169703 0
-4.31611e-05 -0.000639529 0
-5.52361e-05 -0.00170351 0
-0.000642914 -0.000642997 0
-0.000647979 -0.00157502 0
-0.000416979 -0.000638512 0
-0.000439142 -0.00169703 0
-0.0019398 -0.000622886 0
-0.00190152 -0.00146363 0
-0.000642914 -0.000642997 0
-0.000647979 -0.00157502 0
-0.00330422 -0.000619645 0
-0.00320253 -0.00101267 0
-0.0019398 -0.000622886 0
-0.00190152 -0.00146363 0
-0.00722476 -0.000575906 0
-0.0070406 -0.000330547 0
-0.00330422 -0.000619645 0
-0.00320253 -0.00101267 0
-0.0122366 -0.000583807 0
-0.0117026 0.00141092 0
-0.00722476 -0.000575906 0
-0.0070406 -0.000330547 0
-0.0231476 -0.000396749 0
-0.0223535 0.00392742 0
-0.0122366 -0.000583807 0
-0.0117026 0.00141092 0
-0.0379477 -0.000337961 0
-0.0367383 0.010322 0
-0.0231476 -0.000396749 0
-0.0223535 0.00392742 0
-0.0618087 -0.000890187 0
-0.0663662 0.00963741 0
-0.0379477 -0.000337961 0
-0.0367383 0.010322 0
-0.0700556 -0.00062505 0
-0.0815625 -0.0201125 0
-0.0618087 -0.000890187 0
-0.0663662 0.00963741 0
0.00376197 -0.00213148 0
0.0071082 -0.0332746 0
-0.00267397 -0.00164766 0
-0.00241296 -0.0381149 0
7.19977e-06 -0.000378449 0
-3.10659e-05 -0.000827808 0
1.49124e-05 -0.000367767 0
-2.70578e-05 -0.000826993 0
7.19977e-06 -0.000378449 0
-4.71295e-06 -0.000392387 0
-3.10659e-05 -0.000827808 0
-2.66115e-05 -0.000822007 0
-1.10112e-05 -0.000394657 0
-2.32483e-05 -0.000826525 0
-4.71295e-06 -0.000392387 0
-2.66115e-05 -0.000822007 0
-1.10112e-05 -0.000394657 0
-6.30737e-06 -0.000401363 0
-2.32483e-05 -0.000826525 0
-2.18031e-05 -0.000824535 0
-6.30737e-06 -0.000401363 0
-2.54956e-06 -0.000402277 0
-2.18031e-05 -0.000824535 0
-1.5014e-05 -0.000830036 0
-2.54956e-06 -0.000402277 0
2.30751e-06 -0.000405693 0
-1.5014e-05 -0.000830036 0
-9.1379e-06 -0.00083204 0
2.30751e-06 -0.000405693 0
6.91405e-06 -0.000404795 0
-9.1379e-06 -0.00083204 0
-5.05351e-06 -0.000838277 0
6.91405e-06 -0.000404795 0
1.10638e-05 -0.000407769 0
-5.05351e-06 -0.000838277 0
-4.30369e-06 -0.000841392 0
1.10638e-05 -0.000407769 0
1.10447e-05 -0.000409252 0
-4.30369e-06 -0.000841392 0
-6.88441e-07 -0.000845351 0
1.10447e-05 -0.000409252 0
1.03882e-05 -0.0004115 0
-6.88441e-07 -0.000845351 0
1.41032e-06 -0.000847588 0
1.03882e-05 -0.0004115 0
9.31856e-06 -0.000412249 0
1.41032e-06 -0.000847588 0
3.44405e-06 -0.0008498 0
9.31856e-06 -0.000412249 0
8.26668e-06 -0.000413471 0
3.44405e-06 -0.0008498 0
4.31682e-06 -0.000850792 0
8.26668e-06 -0.000413471 0
7.23634e-06 -0.000413598 0
4.31682e-06 -0.000850792 0
5.59419e-06 -0.000851811 0
7.23634e-06 -0.000413598 0
6.47584e-06 -0.000413893 0
5.59419e-06 -0.000851811 0
5.5641e-06 -0.000852354 0
6.47584e-06 -0.000413893 0
6.53862e-06 -0.000413866 0
5.5641e-06 -0.000852354 0
5.44346e-06 -0.000853215 0
6.53862e-06 -0.000413866 0
8.23112e-06 -0.000414018 0
5.44346e-06 -0.000853215 0
3.95542e-06 -0.000854557 0
8.23112e-06 -0.000414018 0
8.50642e-06 -0.000414638 0
3.95542e-06 -0.000854557 0
2.71336e-06 -0.000855808 0
8.50642e-06 -0.000414638 0
8.13641e-06 -0.000415472 0
2.71336e-06 -0.000855808 0
3.00433e-06 -0.000857467 0
8.13641e-06 -0.000415472 0
7.68112e-06 -0.000416346 0
3.00433e-06 -0.000857467 0
3.36847e-06 -0.000859117 0
7.68112e-06 -0.000416346 0
6.0976e-06 -0.000417017 0
3.36847e-06 -0.000859117 0
3.33741e-06 -0.000860468 0
6.0976e-06 -0.000417017 0
5.13834e-06 -0.000417257 0
3.33741e-06 -0.000860468 0
2.98075e-06 -0.000861851 0
5.13834e-06 -0.000417257 0
4.50076e-06 -0.000417647 0
2.98075e-06 -0.000861851 0
2.62214e-06 -0.000862425 0
4.50076e-06 -0.000417647 0
4.08175e-06 -0.000417614 0
2.62214e-06 -0.000862425 0
2.42755e-06 -0.000862689 0
4.08175e-06 -0.000417614 0
3.70232e-06 -0.000417519 0
2.42755e-06 -0.000862689 0
1.66642e-06 -0.000862797 0
0.095088 -0.0933926 0
0.0705547 -0.0686275 0
0.107916 -0.0833149 0
0.0782602 -0.0531577 0
0.0448323 -0.0442122 0
0.0516442 -0.0308712 0
0.0705547 -0.0686275 0
0.0782602 -0.0531577 0
0.0448323 -0.0442122 0
0.0281139 -0.0280173 0
0.0516442 -0.0308712 0
0.0306782 -0.0214026 0
0.0281139 -0.0280173 0
0.0167464 -0.0170135 0
0.0306782 -0.0214026 0
0.0183212 -0.0135996 0
0.0100109 -0.0104052 0
0.0102875 -0.00884991 0
0.0167464 -0.0170135 0
0.0183212 -0.0135996 0
0.00563521 -0.00611694 0
0.00569705 -0.00542146 0
0.0100109 -0.0104052 0
0.0102875 -0.00884991 0
0.00563521 -0.00611694 0
0.00312395 -0.00362748 0
0.00569705 -0.00542146 0
0.00280464 -0.00343639 0
0.00312395 -0.00362748 0
0.00163139 -0.00215405 0
0.00280464 -0.00343639 0
0.00128262 -0.00217108 0
0.000798511 -0.00132326 0
0.000348075 -0.00145031 0
0.00163139 -0.00215405 0
0.00128262 -0.00217108 0
0.000798511 -0.00132326 0
0.000355283 -0.00088958 0
0.000348075 -0.00145031 0
-7.75222e-05 -0.00105748 0
0.000355283 -0.00088958 0
9.98493e-05 -0.000626223 0
-7.75222e-05 -0.00105748 0
-0.000346639 -0.000829915 0
9.98493e-05 -0.000626223 0
-8.75741e-06 -0.000513745 0
-0.000346639 -0.000829915 0
-0.000446113 -0.00072433 0
-8.75741e-06 -0.000513745 0
-8.44149e-05 -0.000429005 0
-0.000446113 -0.00072433 0
-0.000517697 -0.000647296 0
-0.000104532 -0.00040187 0
-0.000532563 -0.000612277 0
-8.44149e-05 -0.000429005 0
-0.000517697 -0.000647296 0
-0.000130917 -0.000373986 0
-0.000547275 -0.000573696 0
-0.000104532 -0.00040187 0
-0.000532563 -0.000612277 0
-0.000130917 -0.000373986 0
-0.000138106 -0.000363637 0
-0.000547275 -0.000573696 0
-0.000542434 -0.000556288 0
-0.000138106 -0.000363637 0
-0.000146806 -0.000352494 0
-0.000542434 -0.000556288 0
-0.00053905 -0.000536933 0
-0.000146806 -0.000352494 0
-0.000148539 -0.000345732 0
-0.00053905 -0.000536933 0
-0.000531827 -0.000529378 0
-0.000148539 -0.000345732 0
-0.000144006 -0.00034385 0
-0.000531827 -0.000529378 0
-0.000524802 -0.000523632 0
-0.000144006 -0.00034385 0
-0.000142516 -0.000339846 0
-0.000524802 -0.000523632 0
-0.000517901 -0.000519865 0
-0.000142516 -0.000339846 0
-0.000127208 -0.000347854 0
-0.000517901 -0.000519865 0
-0.000503568 -0.000519755 0
-0.000127208 -0.000347854 0
-0.000128264 -0.000345051 0
-0.000503568 -0.000519755 0
-0.000498719 -0.00052161 0
-0.000108583 -0.000351277 0
-0.000477762 -0.000538781 0
-0.000128264 -0.000345051 0
-0.000498719 -0.00052161 0
-0.000106945 -0.000343756 0
-0.000495106 -0.000535728 0
-0.000108583 -0.000351277 0
-0.000477762 -0.000538781 0
-0.000106945 -0.000343756 0
-8.32007e-05 -0.000367948 0
-0.000495106 -0.000535728 0
-0.00047399 -0.000540295 0
-9.46901e-05 -0.000368961 0
-0.00048432 -0.000519418 0
-8.32007e-05 -0.000367948 0
-0.00047399 -0.000540295 0
-6.97092e-05 -0.000421694 0
-0.000405573 -0.000537375 0
-9.46901e-05 -0.000368961 0
-0.00048432 -0.000519418 0
-6.97092e-05 -0.000421694 0
-9.49778e-05 -0.000395355 0
-0.000405573 -0.000537375 0
-0.000397299 -0.000558722 0
-1.19654e-05 -0.000462386 0
-0.000329134 -0.000634387 0
-9.49778e-05 -0.000395355 0
-0.000397299 -0.000558722 0
-1.19654e-05 -0.000462386 0
1.12801e-05 -0.000484392 0
-0.000329134 -0.000634387 0
-0.000364775 -0.000644759 0
1.12801e-05 -0.000484392 0
0.000130228 -0.000625828 0
-0.000364775 -0.000644759 0
-0.000218307 -0.000771958 0
0.000130228 -0.000625828 0
0.000101915 -0.000598491 0
-0.000218307 -0.000771958 0
-0.000222692 -0.000709669 0
0.000101915 -0.000598491 0
5.47174e-05 -0.000528546 0
-0.000222692 -0.000709669 0
7.58823e-05 -0.000971407 0
5.47174e-05 -0.000528546 0
5.84779e-05 -0.000368763 0
7.58823e-05 -0.000971407 0
-8.91549e-05 -0.00048721 0
5.84779e-05 -0.000368763 0
5.08297e-05 -0.000419265 0
-8.91549e-05 -0.00048721 0
-0.000139792 -0.000859276 0
5.08297e-05 -0.000419265 0
0.000166915 -0.000283959 0
-0.000139792 -0.000859276 0
5.631e-05 -0.000734583 0
0.000166915 -0.000283959 0
0.000119863 -0.000366463 0
5.631e-05 -0.000734583 0
-0.000274283 -0.000832321 0
0.000119863 -0.000366463 0
4.00716e-05 -0.000435799 0
-0.000274283 -0.000832321 0
1.65522e-05 -0.000783943 0
4.00716e-05 -0.000435799 0
-0.000157711 -0.000388667 0
1.65522e-05 -0.000783943 0
-6.08136e-05 -0.000924391 0
2.42755e-06 -0.000862689 0
1.66642e-06 -0.000862797 0
1.61618e-06 -0.000475313 0
6.98451e-07 -0.000476982 0
1.61618e-06 -0.000475313 0
6.98451e-07 -0.000476982 0
3.61647e-07 -0.000801948 0
-5.26318e-07 -0.000802266 0
3.61647e-07 -0.000801948 0
-5.26318e-07 -0.000802266 0
-1.24477e-06 -0.000468793 0
-1.00051e-06 -0.000469345 0
-1.24477e-06 -0.000468793 0
-1.00051e-06 -0.000469345 0
-1.30445e-06 -0.000655178 0
-2.50184e-06 -0.000655978 0
-1.30445e-06 -0.000655178 0
-2.50184e-06 -0.000655978 0
-3.29605e-06 -0.000343023 0
-3.29865e-06 -0.000343264 0
-3.29605e-06 -0.000343023 0
-3.29865e-06 -0.000343264 0
-3.1117e-06 -0.000435574 0
-3.98038e-06 -0.000436334 0
-5.13159e-06 -0.000180384 0
-3.1117e-06 -0.000435574 0
-5.24279e-06 -0.000180905 0
-3.98038e-06 -0.000436334 0
-5.13159e-06 -0.000180384 0
-5.24279e-06 -0.000180905 0
-5.48731e-06 -0.000242677 0
-5.49912e-06 -0.000243366 0
-5.48731e-06 -0.000242677 0
-5.49912e-06 -0.000243366 0
-7.32673e-06 -6.74076e-05 0
-6.94334e-06 -6.84512e-05 0
-7.32673e-06 -6.74076e-05 0
-6.94334e-06 -6.84512e-05 0
-8.65553e-06 -0.000123903 0
-7.91116e-06 -0.000125294 0
-8.65553e-06 -0.000123903 0
-7.91116e-06 -0.000125294 0
-1.14014e-05 -1.94547e-05 0
-1.0592e-05 -2.20941e-05 0
-1.14014e-05 -1.94547e-05 0
-1.0592e-05 -2.20941e-05 0
-1.50239e-05 -6.78304e-05 0
-1.54334e-05 -7.22091e-05 0
-1.50239e-05 -6.78304e-05 0
-1.54334e-05 -7.22091e-05 0
-2.08016e-05 -1.45459e-05 0
-2.3805e-05 -2.11391e-05 0
-2.08016e-05 -1.45459e-05 0
-2.3805e-05 -2.11391e-05 0
-2.83273e-05 -4.5581e-05 0
-3.64352e-05 -5.51556e-05 0
-2.83273e-05 -4.5581e-05 0
-3.64352e-05 -5.51556e-05 0
-3.78885e-05 -2.55687e-05 0
-5.45689e-05 -3.70007e-05 0
-3.78885e-05 -2.55687e-05 0
-5.45689e-05 -3.70007e-05 0
-4.7298e-05 -2.81097e-05 0
-7.42704e-05 -3.96775e-05 0
-4.7298e-05 -2.81097e-05 0
-7.42704e-05 -3.96775e-05 0
-5.4628e-05 -2.99722e-05 0
-9.28839e-05 -3.78283e-05 0
-5.4628e-05 -2.99722e-05 0
-9.28839e-05 -3.78283e-05 0
-5.58802e-05 2.91635e-06 0
-0.000100181 2.43128e-06 0
-5.58802e-05 2.91635e-06 0
-0.000100181 2.43128e-06 0
-5.07597e-05 -2.98028e-05 0
-9.31575e-05 -2.20071e-05 0
-5.07597e-05 -2.98028e-05 0
-9.31575e-05 -2.20071e-05 0
-3.94425e-05 3.08135e-05 0
-7.26743e-05 4.31171e-05 0
-3.94425e-05 3.08135e-05 0
-7.26743e-05 4.31171e-05 0
-2.70907e-05 -6.34824e-05 0
-4.95714e-05 -5.02402e-05 0
-2.70907e-05 -6.34824e-05 0
-4.95714e-05 -5.02402e-05 0
-1.44443e-05 1.79249e-05 0
-2.76231e-05 2.82445e-05 0
-1.44443e-05 1.79249e-05 0
-2.76231e-05 2.82445e-05 0
-7.32004e-06 -0.000177455 0
-1.38086e-05 -0.000169804 0
-7.32004e-06 -0.000177455 0
-1.38086e-05 -0.000169804 0
5.01622e-07 -7.79205e-05 0
-2.16149e-06 -7.54853e-05 0
5.01622e-07 -7.79205e-05 0
-2.16149e-06 -7.54853e-05 0
-2.28513e-06 -0.000433873 0
-4.40633e-06 -0.000431626 0
-2.28513e-06 -0.000433873 0
-4.40633e-06 -0.000431626 0
2.95683e-06 -0.000319488 0
2.88037e-06 -0.000317872 0
2.95683e-06 -0.000319488 0
2.88037e-06 -0.000317872 0
-1.26409e-06 -0.000903832 0
-2.23888e-06 -0.000901854 0
-1.26409e-06 -0.000903832 0
-2.23888e-06 -0.000901854 0
4.80456e-06 -0.000685579 0
6.09209e-06 -0.000685371 0
4.80456e-06 -0.000685579 0
6.09209e-06 -0.000685371 0
-5.05597e-06 -0.00144392 0
-3.88366e-06 -0.0014464 0
-5.05597e-06 -0.00144392 0
-3.88366e-06 -0.0014464 0
-5.58709e-06 -0.000858622 0
-4.47052e-06 -0.000860677 0
-5.58709e-06 -0.000858622 0
-4.47052e-06 -0.000860677 0
-1.049e-05 -0.00174946 0
-7.83113e-06 -0.00175208 0
0.0516442 -0.0308712 0
0.0511962 -0.0115981 0
0.0782602 -0.0531577 0
0.0850889 -0.0102287 0
0.0516442 -0.0308712 0
0.0306782 -0.0214026 0
0.0511962 -0.0115981 0
0.0299006 -0.00978015 0
0.0306782 -0.0214026 0
0.0183212 -0.0135996 0
0.0299006 -0.00978015 0
0.0181949 -0.00805047 0
0.0102875 -0.00884991 0
0.010254 -0.00532761 0
0.0183212 -0.0135996 0
0.0181949 -0.00805047 0
0.00569705 -0.00542146 0
0.00588232 -0.00373047 0
0.0102875 -0.00884991 0
0.010254 -0.00532761 0
0.00569705 -0.00542146 0
0.00280464 -0.00343639 0
0.00588232 -0.00373047 0
0.00298591 -0.00221094 0
0.00280464 -0.00343639 0
0.00128262 -0.00217108 0
0.00298591 -0.00221094 0
0.00152936 -0.0014985 0
0.000348075 -0.00145031 0
0.000593008 -0.000891638 0
0.00128262 -0.00217108 0
0.00152936 -0.0014985 0
0.000348075 -0.00145031 0
-7.75222e-05 -0.00105748 0
0.000593008 -0.000891638 0
0.000162479 -0.000668294 0
-7.75222e-05 -0.00105748 0
-0.000346639 -0.000829915 0
0.000162479 -0.000668294 0
-0.000105291 -0.000446567 0
-0.000346639 -0.000829915 0
-0.000446113 -0.00072433 0
-0.000105291 -0.000446567 0
-0.000200459 -0.00038905 0
-0.000446113 -0.00072433 0
-0.000517697 -0.000647296 0
-0.000200459 -0.00038905 0
-0.000267652 -0.000308304 0
-0.000532563 -0.000612277 0
-0.000281932 -0.000294713 0
-0.000517697 -0.000647296 0
-0.000267652 -0.000308304 0