# vtk DataFile Version 3.0
#This file was generated by the deal.II library on 2016/12/20 at 10:56:44
ASCII
DATASET UNSTRUCTURED_GRID

POINTS 7276 double
-1 0.5 0
-0.978723 0.478723 0
-0.970149 0.5 0
-0.964976 0.485465 0
0.12 -0.5 0
0.15 -0.5 0
0.119014 -0.4708 0
0.15 -0.471429 0
0.11755 -0.441479 0
0.119014 -0.4708 0
0.15 -0.442857 0
0.15 -0.471429 0
0.117242 -0.412206 0
0.11755 -0.441479 0
0.15 -0.414286 0
0.15 -0.442857 0
0.118129 -0.383064 0
0.117242 -0.412206 0
0.15 -0.385714 0
0.15 -0.414286 0
0.12021 -0.354337 0
0.118129 -0.383064 0
0.15 -0.357143 0
0.15 -0.385714 0
0.121793 -0.32584 0
0.12021 -0.354337 0
0.15 -0.328571 0
0.15 -0.357143 0
0.122717 -0.296869 0
0.121793 -0.32584 0
0.15 -0.3 0
0.15 -0.328571 0
0.123759 -0.266752 0
0.122717 -0.296869 0
0.153091 -0.267708 0
0.15 -0.3 0
0.18456 -0.26795 0
0.153091 -0.267708 0
0.183333 -0.3 0
0.15 -0.3 0
0.216606 -0.268111 0
0.18456 -0.26795 0
0.216667 -0.3 0
0.183333 -0.3 0
0.24835 -0.26841 0
0.216606 -0.268111 0
0.25 -0.3 0
0.216667 -0.3 0
0.278782 -0.268564 0
0.24835 -0.26841 0
0.279437 -0.298917 0
0.25 -0.3 0
0.279638 -0.328111 0
0.279437 -0.298917 0
0.25 -0.328571 0
0.25 -0.3 0
0.27971 -0.356801 0
0.279638 -0.328111 0
0.25 -0.357143 0
0.25 -0.328571 0
0.279677 -0.385395 0
0.27971 -0.356801 0
0.25 -0.385714 0
0.25 -0.357143 0
0.279641 -0.413938 0
0.279677 -0.385395 0
0.25 -0.414286 0
0.25 -0.385714 0
0.279666 -0.442534 0
0.279641 -0.413938 0
0.25 -0.442857 0
0.25 -0.414286 0
0.279811 -0.471266 0
0.279666 -0.442534 0
0.25 -0.471429 0
0.25 -0.442857 0
0.28 -0.5 0
0.279811 -0.471266 0
0.25 -0.5 0
0.25 -0.471429 0
0.970149 0.5 0
0.970096 0.46978 0
1 0.5 0
1 0.469697 0
0.940299 0.5 0
0.940231 0.46984 0
0.970149 0.5 0
0.970096 0.46978 0
0.910448 0.5 0
0.910371 0.469856 0
0.940299 0.5 0
0.940231 0.46984 0
0.880597 0.5 0
0.880527 0.469909 0
0.910448 0.5 0
0.910371 0.469856 0
0.850746 0.5 0
0.850684 0.469926 0
0.880597 0.5 0
0.880527 0.469909 0
0.820896 0.5 0
0.820842 0.469978 0
0.850746 0.5 0
0.850684 0.469926 0
0.791045 0.5 0
0.791001 0.470016 0
0.820896 0.5 0
0.820842 0.469978 0
0.761194 0.5 0
0.761159 0.470055 0
0.791045 0.5 0
0.791001 0.470016 0
0.731343 0.5 0
0.731316 0.470091 0
0.761194 0.5 0
0.761159 0.470055 0
0.701493 0.5 0
0.701472 0.470118 0
0.731343 0.5 0
0.731316 0.470091 0
0.671642 0.5 0
0.671627 0.470134 0
0.701493 0.5 0
0.701472 0.470118 0
0.641791 0.5 0
0.64178 0.470142 0
0.671642 0.5 0
0.671627 0.470134 0
0.641791 0.5 0
0.61194 0.5 0
0.64178 0.470142 0
0.611934 0.470065 0
0.58209 0.5 0
0.582089 0.470002 0
0.61194 0.5 0
0.611934 0.470065 0
0.552239 0.5 0
0.552248 0.469853 0
0.58209 0.5 0
0.582089 0.470002 0
0.522388 0.5 0
0.522413 0.469718 0
0.552239 0.5 0
0.552248 0.469853 0
0.492537 0.5 0
0.492577 0.469656 0
0.522388 0.5 0
0.522413 0.469718 0
0.462687 0.5 0
0.462743 0.469571 0
0.492537 0.5 0
0.492577 0.469656 0
0.432836 0.5 0
0.432895 0.46963 0
0.462687 0.5 0
0.462743 0.469571 0
0.402985 0.5 0
0.403046 0.469669 0
0.432836 0.5 0
0.432895 0.46963 0
0.373134 0.5 0
0.373191 0.469745 0
0.402985 0.5 0
0.403046 0.469669 0
0.343284 0.5 0
0.343335 0.469723 0
0.373134 0.5 0
0.373191 0.469745 0
0.313433 0.5 0
0.313478 0.469741 0
0.343284 0.5 0
0.343335 0.469723 0
0.283582 0.5 0
0.283622 0.469783 0
0.313433 0.5 0
0.313478 0.469741 0
0.253731 0.5 0
0.253768 0.469742 0
0.283582 0.5 0
0.283622 0.469783 0
0.223881 0.5 0
0.223918 0.469737 0
0.253731 0.5 0
0.253768 0.469742 0
0.19403 0.5 0
0.194064 0.46981 0
0.223881 0.5 0
0.223918 0.469737 0
0.164179 0.5 0
0.16421 0.469881 0
0.19403 0.5 0
0.194064 0.46981 0
0.134328 0.5 0
0.134355 0.46994 0
0.164179 0.5 0
0.16421 0.469881 0
0.104478 0.5 0
0.1045 0.469997 0
0.134328 0.5 0
0.134355 0.46994 0
0.074627 0.5 0
0.074645 0.470051 0
0.104478 0.5 0
0.1045 0.469997 0
0.044776 0.5 0
0.04479 0.470093 0
0.074627 0.5 0
0.074645 0.470051 0
0.014925 0.5 0
0.014935 0.47012 0
0.044776 0.5 0
0.04479 0.470093 0
-0.014925 0.5 0
-0.014918 0.470135 0
0.014925 0.5 0
0.014935 0.47012 0
-0.044776 0.5 0
-0.044771 0.470143 0
-0.014925 0.5 0
-0.014918 0.470135 0
-0.074627 0.5 0
-0.074623 0.470146 0
-0.044776 0.5 0
-0.044771 0.470143 0
-0.104478 0.5 0
-0.104496 0.469979 0
-0.074627 0.5 0
-0.074623 0.470146 0
-0.134328 0.5 0
-0.134359 0.469935 0
-0.104478 0.5 0
-0.104496 0.469979 0
-0.164179 0.5 0
-0.164225 0.469839 0
-0.134328 0.5 0
-0.134359 0.469935 0
-0.164179 0.5 0
-0.19403 0.5 0
-0.164225 0.469839 0
-0.194083 0.469797 0
-0.223881 0.5 0
-0.22394 0.469753 0
-0.19403 0.5 0
-0.194083 0.469797 0
-0.253731 0.5 0
-0.253798 0.469819 0
-0.223881 0.5 0
-0.22394 0.469753 0
-0.283582 0.5 0
-0.283647 0.470019 0
-0.253731 0.5 0
-0.253798 0.469819 0
-0.313433 0.5 0
-0.313491 0.470151 0
-0.283582 0.5 0
-0.283647 0.470019 0
-0.343284 0.5 0
-0.343348 0.470381 0
-0.313433 0.5 0
-0.313491 0.470151 0
-0.343284 0.5 0
-0.373134 0.5 0
-0.343348 0.470381 0
-0.373195 0.470395 0
-0.373134 0.5 0
-0.402985 0.5 0
-0.373195 0.470395 0
-0.403049 0.470404 0
-0.432836 0.5 0
-0.432937 0.470297 0
-0.402985 0.5 0
-0.403049 0.470404 0
-0.462687 0.5 0
-0.462848 0.469995 0
-0.432836 0.5 0
-0.432937 0.470297 0
-0.492537 0.5 0
-0.492807 0.469765 0
-0.462687 0.5 0
-0.462848 0.469995 0
-0.522388 0.5 0
-0.52276 0.46958 0
-0.492537 0.5 0
-0.492807 0.469765 0
-0.552239 0.5 0
-0.55273 0.469652 0
-0.522388 0.5 0
-0.52276 0.46958 0
-0.58209 0.5 0
-0.582662 0.469731 0
-0.552239 0.5 0
-0.55273 0.469652 0
-0.61194 0.5 0
-0.612594 0.469999 0
-0.58209 0.5 0
-0.582662 0.469731 0
-0.641791 0.5 0
-0.642647 0.470419 0
-0.61194 0.5 0
-0.612594 0.469999 0
-0.671642 0.5 0
-0.672638 0.470543 0
-0.641791 0.5 0
-0.642647 0.470419 0
-0.701493 0.5 0
-0.702968 0.4698 0
-0.671642 0.5 0
-0.672638 0.470543 0
-0.820896 0.5 0
-0.822797 0.47207 0
-0.791045 0.5 0
-0.795702 0.469563 0
0.31 -0.5 0
0.309694 -0.471123 0
0.28 -0.5 0
0.279811 -0.471266 0
0.31 -0.5 0
0.34 -0.5 0
0.309694 -0.471123 0
0.339686 -0.471033 0
0.37 -0.5 0
0.369721 -0.471055 0
0.34 -0.5 0
0.339686 -0.471033 0
0.37 -0.5 0
0.4 -0.5 0
0.369721 -0.471055 0
0.399756 -0.470957 0
0.4 -0.5 0
0.43 -0.5 0
0.399756 -0.470957 0
0.429805 -0.470822 0
0.43 -0.5 0
0.46 -0.5 0
0.429805 -0.470822 0
0.459835 -0.470712 0
0.46 -0.5 0
0.49 -0.5 0
0.459835 -0.470712 0
0.489873 -0.470554 0
0.49 -0.5 0
0.52 -0.5 0
0.489873 -0.470554 0
0.519906 -0.470379 0
0.52 -0.5 0
0.55 -0.5 0
0.519906 -0.470379 0
0.54993 -0.470248 0
0.55 -0.5 0
0.58 -0.5 0
0.54993 -0.470248 0
0.579948 -0.470155 0
0.58 -0.5 0
0.61 -0.5 0
0.579948 -0.470155 0
0.609962 -0.470091 0
0.61 -0.5 0
0.64 -0.5 0
0.609962 -0.470091 0
0.639972 -0.47005 0
0.64 -0.5 0
0.67 -0.5 0
0.639972 -0.47005 0
0.66998 -0.470026 0
0.67 -0.5 0
0.7 -0.5 0
0.66998 -0.470026 0
0.699986 -0.470013 0
0.7 -0.5 0
0.73 -0.5 0
0.699986 -0.470013 0
0.72999 -0.470006 0
0.73 -0.5 0
0.76 -0.5 0
0.72999 -0.470006 0
0.759994 -0.470003 0
0.76 -0.5 0
0.79 -0.5 0
0.759994 -0.470003 0
0.78998 -0.469916 0
0.79 -0.5 0
0.82 -0.5 0
0.78998 -0.469916 0
0.819956 -0.469877 0
0.82 -0.5 0
0.85 -0.5 0
0.819956 -0.469877 0
0.849929 -0.469833 0
0.85 -0.5 0
0.88 -0.5 0
0.849929 -0.469833 0
0.879924 -0.469805 0
0.88 -0.5 0
0.91 -0.5 0
0.879924 -0.469805 0
0.909913 -0.469792 0
0.91 -0.5 0
0.94 -0.5 0
0.909913 -0.469792 0
0.939922 -0.469775 0
0.94 -0.5 0
0.97 -0.5 0
0.939922 -0.469775 0
0.969956 -0.46974 0
0.97 -0.5 0
1 -0.5 0
0.969956 -0.46974 0
1 -0.469697 0
-0.702128 0.202128 0
-0.680851 0.180851 0
-0.680976 0.2243 0
-0.659597 0.203254 0
-0.680851 0.180851 0
-0.659574 0.159574 0
-0.659597 0.203254 0
-0.638233 0.18203 0
-0.638298 0.138298 0
-0.616915 0.16063 0
-0.659574 0.159574 0
-0.638233 0.18203 0
-0.617021 0.117021 0
-0.595665 0.139192 0
-0.638298 0.138298 0
-0.616915 0.16063 0
-0.617021 0.117021 0
-0.595745 0.095745 0
-0.595665 0.139192 0
-0.574431 0.117764 0
-0.595745 0.095745 0
-0.574468 0.074468 0
-0.574431 0.117764 0
-0.553204 0.096309 0
-0.553191 0.053191 0
-0.53184 0.075023 0
-0.574468 0.074468 0
-0.553204 0.096309 0
-0.553191 0.053191 0
-0.531915 0.031915 0
-0.53184 0.075023 0
-0.510492 0.053733 0
-0.531915 0.031915 0
-0.510638 0.010638 0
-0.510492 0.053733 0
-0.489127 0.032461 0
-0.510638 0.010638 0
-0.489362 -0.010638 0
-0.489127 0.032461 0
-0.467791 0.011178 0
-0.489362 -0.010638 0
-0.468085 -0.031915 0
-0.467791 0.011178 0
-0.446536 -0.010172 0
-0.446809 -0.053191 0
-0.42524 -0.031466 0
-0.468085 -0.031915 0
-0.446536 -0.010172 0
-0.425532 -0.074468 0
-0.404012 -0.052824 0
-0.446809 -0.053191 0
-0.42524 -0.031466 0
-0.425532 -0.074468 0
-0.404255 -0.095745 0
-0.404012 -0.052824 0
-0.382783 -0.074175 0
-0.404255 -0.095745 0
-0.382979 -0.117021 0
-0.382783 -0.074175 0
-0.361545 -0.095511 0
-0.382979 -0.117021 0
-0.361702 -0.138298 0
-0.361545 -0.095511 0
-0.340288 -0.116831 0
-0.361702 -0.138298 0
-0.340426 -0.159574 0
-0.340288 -0.116831 0
-0.319034 -0.138159 0
-0.340426 -0.159574 0
-0.319149 -0.180851 0
-0.319034 -0.138159 0
-0.297766 -0.159484 0
-0.319149 -0.180851 0
-0.297872 -0.202128 0
-0.297766 -0.159484 0
-0.276489 -0.180797 0
-0.297872 -0.202128 0
-0.276596 -0.223404 0
-0.276489 -0.180797 0
-0.255087 -0.202105 0
-0.255319 -0.244681 0
-0.233674 -0.223466 0
-0.276596 -0.223404 0
-0.255087 -0.202105 0
-0.234043 -0.265957 0
-0.212119 -0.244916 0
-0.255319 -0.244681 0
-0.233674 -0.223466 0
-0.234043 -0.265957 0
-0.212766 -0.287234 0
-0.212119 -0.244916 0
-0.190657 -0.266392 0
-0.191489 -0.308511 0
-0.169261 -0.287934 0
-0.212766 -0.287234 0
-0.190657 -0.266392 0
-0.170213 -0.329787 0
-0.147854 -0.309624 0
-0.191489 -0.308511 0
-0.169261 -0.287934 0
-0.170213 -0.329787 0
-0.148936 -0.351064 0
-0.147854 -0.309624 0
-0.126431 -0.331364 0
-0.12766 -0.37234 0
-0.105256 -0.353368 0
-0.148936 -0.351064 0
-0.126431 -0.331364 0
-0.12766 -0.37234 0
-0.106383 -0.393617 0
-0.105256 -0.353368 0
-0.083924 -0.375263 0
-0.106383 -0.393617 0
-0.085106 -0.414894 0
-0.083924 -0.375263 0
-0.062097 -0.396824 0
-0.085106 -0.414894 0
-0.06383 -0.43617 0
-0.062097 -0.396824 0
-0.040132 -0.418076 0
-0.06383 -0.43617 0
-0.042553 -0.457447 0
-0.040132 -0.418076 0
-0.019646 -0.439891 0
-0.042553 -0.457447 0
-0.021277 -0.478723 0
-0.019646 -0.439891 0
[...]
POINT_DATA 7276
VECTORS momentum double
0.00150684 -0.00105391 0
0.00635224 -0.00634055 0
0.0156876 -0.00139717 0
0.0179112 -0.0007677 0
-9.69669e-05 -0.000400011 0
6.75299e-05 -0.000402148 0
-2.68781e-05 -0.000905534 0
6.18553e-05 -0.000872646 0
-0.000193629 -0.000538156 0
-2.68781e-05 -0.000905534 0
7.3164e-05 -0.000580413 0
6.18553e-05 -0.000872646 0
-2.28831e-05 -0.000941154 0
-0.000193629 -0.000538156 0
1.79283e-07 -0.00104541 0
7.3164e-05 -0.000580413 0
4.78515e-05 -0.000598155 0
-2.28831e-05 -0.000941154 0
-1.40452e-05 -0.000680439 0
1.79283e-07 -0.00104541 0
3.44326e-05 -0.000870573 0
4.78515e-05 -0.000598155 0
-3.70771e-05 -0.000893809 0
-1.40452e-05 -0.000680439 0
0.00010329 -0.000585363 0
3.44326e-05 -0.000870573 0
-1.10403e-05 -0.000575733 0
-3.70771e-05 -0.000893809 0
5.34415e-05 -0.0010478 0
0.00010329 -0.000585363 0
-1.8433e-05 -0.000575466 0
-1.10403e-05 -0.000575733 0
-0.000344729 -0.000573937 0
5.34415e-05 -0.0010478 0
-0.000569154 -0.000841111 0
-1.8433e-05 -0.000575466 0
-0.000246658 -0.00119644 0
-0.000569154 -0.000841111 0
3.75774e-05 -0.000437986 0
-1.8433e-05 -0.000575466 0
-9.79741e-05 -0.00121834 0
-0.000246658 -0.00119644 0
-0.000463927 -0.000487218 0
3.75774e-05 -0.000437986 0
9.32745e-05 -0.000728122 0
-9.79741e-05 -0.00121834 0
-0.000218877 -0.000455629 0
-0.000463927 -0.000487218 0
2.13629e-05 -0.000435324 0
9.32745e-05 -0.000728122 0
-0.000221216 -0.000792392 0
-0.000218877 -0.000455629 0
-2.64417e-05 -0.000392829 0
-0.000221216 -0.000792392 0
2.13939e-05 -0.00028246 0
-0.000218877 -0.000455629 0
-3.14102e-05 -0.000724973 0
-2.64417e-05 -0.000392829 0
-1.80589e-05 -0.00074716 0
2.13939e-05 -0.00028246 0
1.07732e-05 -0.000394797 0
-3.14102e-05 -0.000724973 0
3.30213e-06 -0.000369822 0
-1.80589e-05 -0.00074716 0
-2.46327e-05 -0.00077252 0
1.07732e-05 -0.000394797 0
-4.49159e-06 -0.00078321 0
3.30213e-06 -0.000369822 0
3.08454e-06 -0.00039075 0
-2.46327e-05 -0.00077252 0
1.42709e-06 -0.000381016 0
-4.49159e-06 -0.00078321 0
-2.29837e-05 -0.000834681 0
3.08454e-06 -0.00039075 0
-2.77082e-06 -0.000838435 0
1.42709e-06 -0.000381016 0
6.81863e-06 -0.000378112 0
-2.29837e-05 -0.000834681 0
2.00693e-06 -0.000372671 0
-2.77082e-06 -0.000838435 0
-2.72445e-05 -0.000662285 0
-1.68834e-05 -0.0017273 0
-2.82766e-05 -0.000662542 0
-1.49584e-05 -0.00172929 0
-2.34718e-05 -0.000662683 0
-1.62802e-05 -0.00172532 0
-2.72445e-05 -0.000662285 0
-1.68834e-05 -0.0017273 0
-2.07688e-05 -0.000662162 0
-1.27581e-05 -0.00172294 0
-2.34718e-05 -0.000662683 0
-1.62802e-05 -0.00172532 0
-1.78669e-05 -0.000661125 0
-9.87e-06 -0.00172025 0
-2.07688e-05 -0.000662162 0
-1.27581e-05 -0.00172294 0
-1.46491e-05 -0.000660326 0
-5.3507e-06 -0.00171774 0
-1.78669e-05 -0.000661125 0
-9.87e-06 -0.00172025 0
-1.03334e-05 -0.000658747 0
-3.08372e-07 -0.00171502 0
-1.46491e-05 -0.000660326 0
-5.3507e-06 -0.00171774 0
-3.74028e-06 -0.000657869 0
6.11395e-06 -0.00171224 0
-1.03334e-05 -0.000658747 0
-3.08372e-07 -0.00171502 0
3.7497e-06 -0.000656157 0
1.41954e-05 -0.0017101 0
-3.74028e-06 -0.000657869 0
6.11395e-06 -0.00171224 0
1.41914e-05 -0.000654785 0
2.22596e-05 -0.00170818 0
3.7497e-06 -0.000656157 0
1.41954e-05 -0.0017101 0
2.55928e-05 -0.000653908 0
3.23984e-05 -0.00170724 0
1.41914e-05 -0.000654785 0
2.22596e-05 -0.00170818 0
3.98501e-05 -0.000652614 0
4.2689e-05 -0.00170658 0
2.55928e-05 -0.000653908 0
3.23984e-05 -0.00170724 0
5.57459e-05 -0.000651824 0
4.95554e-05 -0.00170788 0
3.98501e-05 -0.000652614 0
4.2689e-05 -0.00170658 0
5.57459e-05 -0.000651824 0
6.84248e-05 -0.000652432 0
4.95554e-05 -0.00170788 0
5.68392e-05 -0.00171025 0
8.0428e-05 -0.000652739 0
6.09624e-05 -0.00171516 0
6.84248e-05 -0.000652432 0
5.68392e-05 -0.00171025 0
8.73269e-05 -0.000655428 0
6.32478e-05 -0.00171947 0
8.0428e-05 -0.000652739 0
6.09624e-05 -0.00171516 0
8.60926e-05 -0.000658134 0
6.89616e-05 -0.00172199 0
8.73269e-05 -0.000655428 0
6.32478e-05 -0.00171947 0
8.55466e-05 -0.000659374 0
7.22622e-05 -0.00172228 0
8.60926e-05 -0.000658134 0
6.89616e-05 -0.00172199 0
7.65763e-05 -0.00066152 0
7.15978e-05 -0.0017216 0
8.55466e-05 -0.000659374 0
7.22622e-05 -0.00172228 0
6.04412e-05 -0.000662223 0
6.66079e-05 -0.00172009 0
7.65763e-05 -0.00066152 0
7.15978e-05 -0.0017216 0
4.51715e-05 -0.000661372 0
5.6734e-05 -0.0017171 0
6.04412e-05 -0.000662223 0
6.66079e-05 -0.00172009 0
3.2893e-05 -0.000659641 0
4.10474e-05 -0.00171573 0
4.51715e-05 -0.000661372 0
5.6734e-05 -0.0017171 0
2.22297e-05 -0.000659795 0
2.50049e-05 -0.00171302 0
3.2893e-05 -0.000659641 0
4.10474e-05 -0.00171573 0
8.5504e-06 -0.000659661 0
1.22023e-05 -0.00171454 0
2.22297e-05 -0.000659795 0
2.50049e-05 -0.00171302 0
-1.31916e-06 -0.00065984 0
-2.73487e-06 -0.001714 0
8.5504e-06 -0.000659661 0
1.22023e-05 -0.00171454 0
-6.81392e-06 -0.000661237 0
-1.46731e-05 -0.00171094 0
-1.31916e-06 -0.00065984 0
-2.73487e-06 -0.001714 0
-1.93543e-05 -0.000664808 0
-2.58113e-05 -0.00170635 0
-6.81392e-06 -0.000661237 0
-1.46731e-05 -0.00171094 0
-3.28545e-05 -0.000669051 0
-2.87343e-05 -0.00170038 0
-1.93543e-05 -0.000664808 0
-2.58113e-05 -0.00170635 0
-4.29313e-05 -0.000668352 0
-2.94979e-05 -0.00169897 0
-3.28545e-05 -0.000669051 0
-2.87343e-05 -0.00170038 0
-4.32608e-05 -0.000666015 0
-2.66994e-05 -0.00169933 0
-4.29313e-05 -0.000668352 0
-2.94979e-05 -0.00169897 0
-4.3765e-05 -0.000662351 0
-2.51899e-05 -0.00170257 0
-4.32608e-05 -0.000666015 0
-2.66994e-05 -0.00169933 0
-3.38177e-05 -0.000657749 0
-1.55105e-05 -0.00170656 0
-4.3765e-05 -0.000662351 0
-2.51899e-05 -0.00170257 0
-2.7385e-05 -0.000653141 0
-1.48322e-05 -0.00171179 0
-3.38177e-05 -0.000657749 0
-1.55105e-05 -0.00170656 0
-7.56067e-06 -0.000651623 0
-2.91918e-06 -0.00171268 0
-2.7385e-05 -0.000653141 0
-1.48322e-05 -0.00171179 0
-3.38333e-06 -0.000651335 0
-1.21221e-06 -0.00171647 0
-7.56067e-06 -0.000651623 0
-2.91918e-06 -0.00171268 0
2.31351e-05 -0.00065108 0
1.85745e-05 -0.00171608 0
-3.38333e-06 -0.000651335 0
-1.21221e-06 -0.00171647 0
2.2328e-05 -0.00065222 0
4.73455e-06 -0.00171865 0
2.31351e-05 -0.00065108 0
1.85745e-05 -0.00171608 0
4.01471e-05 -0.000655039 0
1.69232e-05 -0.00171481 0
2.2328e-05 -0.00065222 0
4.73455e-06 -0.00171865 0
-1.72716e-06 -0.000659065 0
-2.35401e-05 -0.00171352 0
4.01471e-05 -0.000655039 0
1.69232e-05 -0.00171481 0
2.6485e-06 -0.000663799 0
-2.14048e-05 -0.00170202 0
-1.72716e-06 -0.000659065 0
-2.35401e-05 -0.00171352 0
2.6485e-06 -0.000663799 0
-0.000101367 -0.000669198 0
-2.14048e-05 -0.00170202 0
-0.000109969 -0.00169744 0
-0.000132353 -0.000667909 0
-0.000120628 -0.00168181 0
-0.000101367 -0.000669198 0
-0.000109969 -0.00169744 0
-0.000355385 -0.000664471 0
-0.000312514 -0.00167478 0
-0.000132353 -0.000667909 0
-0.000120628 -0.00168181 0
-0.000474176 -0.000655453 0
-0.000419337 -0.00160935 0
-0.000355385 -0.000664471 0
-0.000312514 -0.00167478 0
-0.000996583 -0.000645752 0
-0.000917475 -0.00155453 0
-0.000474176 -0.000655453 0
-0.000419337 -0.00160935 0
-0.00143422 -0.000629467 0
-0.00135001 -0.00136726 0
-0.000996583 -0.000645752 0
-0.000917475 -0.00155453 0
-0.00143422 -0.000629467 0
-0.00272413 -0.000607983 0
-0.00135001 -0.00136726 0
-0.00260718 -0.00116633 0
-0.00272413 -0.000607983 0
-0.00404205 -0.000584654 0
-0.00260718 -0.00116633 0
-0.00392719 -0.000636201 0
-0.00709783 -0.000556043 0
-0.00689664 -3.02154e-05 0
-0.00404205 -0.000584654 0
-0.00392719 -0.000636201 0
-0.0104585 -0.00051844 0
-0.0101925 0.00130219 0
-0.00709783 -0.000556043 0
-0.00689664 -3.02154e-05 0
-0.0171519 -0.000443172 0
-0.0166501 0.00283343 0
-0.0104585 -0.00051844 0
-0.0101925 0.00130219 0
-0.0246521 -0.000363054 0
-0.023988 0.00580093 0
-0.0171519 -0.000443172 0
-0.0166501 0.00283343 0
-0.0383654 -0.000201108 0
-0.0373555 0.00917744 0
-0.0246521 -0.000363054 0
-0.023988 0.00580093 0
-0.054264 -0.000114815 0
-0.0528054 0.0156841 0
-0.0383654 -0.000201108 0
-0.0373555 0.00917744 0
-0.0822936 0.000285292 0
-0.0800687 0.022554 0
-0.054264 -0.000114815 0
-0.0528054 0.0156841 0
-0.115533 0.000587926 0
-0.113408 0.0368407 0
-0.0822936 0.000285292 0
-0.0800687 0.022554 0
-0.170204 0.000786585 0
-0.166079 0.0389157 0
-0.115533 0.000587926 0
-0.113408 0.0368407 0
-0.192993 -8.29087e-05 0
-0.217667 0.00323778 0
-0.170204 0.000786585 0
-0.166079 0.0389157 0
0.00108227 -0.00298761 0
0.0133485 -0.039307 0
-0.0394408 -0.00214626 0
-0.027391 -0.0651475 0
-4.86385e-06 -0.000387781 0
-3.41643e-05 -0.000832402 0
6.81863e-06 -0.000378112 0
-2.29837e-05 -0.000834681 0
-4.86385e-06 -0.000387781 0
-2.31392e-05 -0.000395598 0
-3.41643e-05 -0.000832402 0
-3.82254e-05 -0.00082992 0
-3.71885e-05 -0.000398679 0
-4.74291e-05 -0.000828523 0
-2.31392e-05 -0.000395598 0
-3.82254e-05 -0.00082992 0
-3.71885e-05 -0.000398679 0
-4.26632e-05 -0.000402684 0
-4.74291e-05 -0.000828523 0
-5.58282e-05 -0.000825991 0
-4.26632e-05 -0.000402684 0
-4.76035e-05 -0.00040493 0
-5.58282e-05 -0.000825991 0
-6.00704e-05 -0.000826449 0
-4.76035e-05 -0.00040493 0
-5.03736e-05 -0.000407319 0
-6.00704e-05 -0.000826449 0
-6.07094e-05 -0.000828029 0
-5.03736e-05 -0.000407319 0
-4.91872e-05 -0.000407382 0
-6.07094e-05 -0.000828029 0
-6.14747e-05 -0.000831951 0
-4.91872e-05 -0.000407382 0
-4.58067e-05 -0.000409966 0
-6.14747e-05 -0.000831951 0
-6.10609e-05 -0.000835387 0
-4.58067e-05 -0.000409966 0
-4.31371e-05 -0.000411956 0
-6.10609e-05 -0.000835387 0
-5.5392e-05 -0.000838862 0
-4.31371e-05 -0.000411956 0
-3.92953e-05 -0.000414072 0
-5.5392e-05 -0.000838862 0
-4.84318e-05 -0.000842209 0
-3.92953e-05 -0.000414072 0
-3.40206e-05 -0.000415082 0
-4.84318e-05 -0.000842209 0
-4.02947e-05 -0.000844938 0
-3.40206e-05 -0.000415082 0
-2.85585e-05 -0.000416308 0
-4.02947e-05 -0.000844938 0
-3.27415e-05 -0.000847152 0
-2.85585e-05 -0.000416308 0
-2.29345e-05 -0.00041659 0
-3.27415e-05 -0.000847152 0
-2.48167e-05 -0.000848846 0
-2.29345e-05 -0.00041659 0
-1.81851e-05 -0.000416974 0
-2.48167e-05 -0.000848846 0
-1.90735e-05 -0.000850357 0
-1.81851e-05 -0.000416974 0
-1.31445e-05 -0.000417055 0
-1.90735e-05 -0.000850357 0
-1.4156e-05 -0.000852007 0
-1.31445e-05 -0.000417055 0
-7.62206e-06 -0.000417293 0
-1.4156e-05 -0.000852007 0
-1.20325e-05 -0.000854249 0
-7.62206e-06 -0.000417293 0
-4.22144e-06 -0.000417978 0
-1.20325e-05 -0.000854249 0
-1.0345e-05 -0.000855911 0
-4.22144e-06 -0.000417978 0
-2.92683e-06 -0.000418878 0
-1.0345e-05 -0.000855911 0
-8.43363e-06 -0.000858127 0
-2.92683e-06 -0.000418878 0
-2.14923e-06 -0.000419801 0
-8.43363e-06 -0.000858127 0
-6.78207e-06 -0.000860283 0
-2.14923e-06 -0.000419801 0
-3.43689e-06 -0.00042055 0
-6.78207e-06 -0.000860283 0
-6.47809e-06 -0.000862274 0
-3.43689e-06 -0.00042055 0
-4.01144e-06 -0.000420836 0
-6.47809e-06 -0.000862274 0
-6.45553e-06 -0.000864278 0
-4.01144e-06 -0.000420836 0
-4.76846e-06 -0.000421304 0
-6.45553e-06 -0.000864278 0
-7.04499e-06 -0.000865622 0
-4.76846e-06 -0.000421304 0
-4.74949e-06 -0.000421342 0
-7.04499e-06 -0.000865622 0
-6.97226e-06 -0.000866633 0
-4.74949e-06 -0.000421342 0
-5.05898e-06 -0.000421327 0
-6.97226e-06 -0.000866633 0
-7.86295e-06 -0.000867222 0
0.171132 -0.167365 0
0.113656 -0.110215 0
0.199276 -0.0885459 0
0.1338 -0.0685583 0
0.113656 -0.110215 0
0.078104 -0.0774993 0
0.1338 -0.0685583 0
0.0906609 -0.0541952 0
0.0563413 -0.0559856 0
0.0638895 -0.0426382 0
0.078104 -0.0774993 0
0.0906609 -0.0541952 0
0.0413146 -0.0414426 0
0.0456532 -0.0331956 0
0.0563413 -0.0559856 0
0.0638895 -0.0426382 0
0.0413146 -0.0414426 0
0.0303036 -0.0305055 0
0.0456532 -0.0331956 0
0.0328776 -0.0254823 0
0.0303036 -0.0305055 0
0.022162 -0.022528 0
0.0328776 -0.0254823 0
0.0234601 -0.0193217 0
0.0158844 -0.0162831 0
0.0165276 -0.0142824 0
0.022162 -0.022528 0
0.0234601 -0.0193217 0
0.0158844 -0.0162831 0
0.0112611 -0.0117316 0
0.0165276 -0.0142824 0
0.011412 -0.0104609 0
0.0112611 -0.0117316 0
0.00776309 -0.00824174 0
0.011412 -0.0104609 0
0.00767182 -0.00749134 0
0.00776309 -0.00824174 0
0.00529962 -0.00580016 0
0.00767182 -0.00749134 0
0.00501098 -0.00536264 0
0.00529962 -0.00580016 0
0.0035133 -0.00401138 0
0.00501098 -0.00536264 0
0.00313703 -0.00379317 0
0.00232057 -0.002821 0
0.00186924 -0.00272553 0
0.0035133 -0.00401138 0
0.00313703 -0.00379317 0
0.00149216 -0.00199218 0
0.00101815 -0.00197393 0
0.00232057 -0.002821 0
0.00186924 -0.00272553 0
0.00149216 -0.00199218 0
0.000963891 -0.00146321 0
0.00101815 -0.00197393 0
0.000472215 -0.0014906 0
0.000963891 -0.00146321 0
0.000617992 -0.00111468 0
0.000472215 -0.0014906 0
0.000128619 -0.00116549 0
0.000617992 -0.00111468 0
0.000407562 -0.000900252 0
0.000128619 -0.00116549 0
-8.10974e-05 -0.00096834 0
0.000407562 -0.000900252 0
0.000286231 -0.00077315 0
-8.10974e-05 -0.00096834 0
-0.000198406 -0.000846217 0
0.000286231 -0.00077315 0
0.000216116 -0.000698114 0
-0.000198406 -0.000846217 0
-0.000263714 -0.000778163 0
0.000216116 -0.000698114 0
0.000197984 -0.000672979 0
-0.000263714 -0.000778163 0
-0.000279079 -0.000747118 0
0.000197984 -0.000672979 0
0.000184954 -0.000657621 0
-0.000279079 -0.000747118 0
-0.000286488 -0.000739972 0
0.000210345 -0.000669191 0
-0.000256889 -0.000762165 0
0.000184954 -0.000657621 0
-0.000286488 -0.000739972 0
0.000221676 -0.00067075 0
-0.000265535 -0.00077206 0
0.000210345 -0.000669191 0
-0.000256889 -0.000762165 0
0.000221676 -0.00067075 0
0.000261949 -0.000711644 0
-0.000265535 -0.00077206 0
-0.000226906 -0.000792542 0
0.000259161 -0.00072191 0
-0.000227836 -0.000783577 0
0.000261949 -0.000711644 0
-0.000226906 -0.000792542 0
0.000289227 -0.000780071 0
-0.000140529 -0.000807154 0
0.000259161 -0.00072191 0
-0.000227836 -0.000783577 0
0.000289227 -0.000780071 0
0.000255446 -0.000746524 0
-0.000140529 -0.000807154 0
-0.000143079 -0.000823343 0
0.00032567 -0.000801391 0
-8.49147e-05 -0.000886101 0
0.000255446 -0.000746524 0
-0.000143079 -0.000823343 0
0.00032567 -0.000801391 0
0.000320253 -0.000795927 0
-8.49147e-05 -0.000886101 0
-0.000137595 -0.00087152 0
0.000320253 -0.000795927 0
0.000406722 -0.000901102 0
-0.000137595 -0.00087152 0
-5.92188e-06 -0.000963983 0
0.000406722 -0.000901102 0
0.000330027 -0.000826748 0
-5.92188e-06 -0.000963983 0
-3.99007e-05 -0.000856058 0
0.000330027 -0.000826748 0
0.000245393 -0.000714465 0
-3.99007e-05 -0.000856058 0
0.000231972 -0.00108501 0
0.000245393 -0.000714465 0
0.000193948 -0.000505973 0
0.000231972 -0.00108501 0
5.18979e-05 -0.000542695 0
0.000193948 -0.000505973 0
0.000111663 -0.000445969 0
5.18979e-05 -0.000542695 0
-1.31033e-05 -0.000894575 0
0.000111663 -0.000445969 0
0.00028518 -0.000283754 0
-1.31033e-05 -0.000894575 0
0.000171449 -0.000743515 0
0.00028518 -0.000283754 0
0.000226729 -0.000368831 0
0.000171449 -0.000743515 0
-0.00018885 -0.000843003 0
0.000226729 -0.000368831 0
0.000146051 -0.000445419 0
-0.00018885 -0.000843003 0
8.8523e-05 -0.000785404 0
0.000146051 -0.000445419 0
-9.69669e-05 -0.000400011 0
8.8523e-05 -0.000785404 0
-2.68781e-05 -0.000905534 0
-6.97226e-06 -0.000866633 0
-7.86295e-06 -0.000867222 0
-8.68776e-06 -0.000483134 0
-1.00399e-05 -0.000486011 0
-8.68776e-06 -0.000483134 0
-1.00399e-05 -0.000486011 0
-1.20923e-05 -0.000823437 0
-1.39183e-05 -0.000825347 0
-1.20923e-05 -0.000823437 0
-1.39183e-05 -0.000825347 0
-1.63509e-05 -0.000536512 0
-1.73849e-05 -0.000539271 0
-1.63509e-05 -0.000536512 0
-1.73849e-05 -0.000539271 0
-1.99565e-05 -0.000792375 0
-2.29352e-05 -0.000795643 0
-1.99565e-05 -0.000792375 0
-2.29352e-05 -0.000795643 0
-2.53907e-05 -0.000578528 0
-2.73511e-05 -0.000581597 0
-2.53907e-05 -0.000578528 0
-2.73511e-05 -0.000581597 0
-2.94e-05 -0.000763625 0
-3.24716e-05 -0.000767343 0
-3.55856e-05 -0.000596148 0
-2.94e-05 -0.000763625 0
-3.76493e-05 -0.000600066 0
-3.24716e-05 -0.000767343 0
-3.55856e-05 -0.000596148 0
-3.76493e-05 -0.000600066 0
-4.13502e-05 -0.000711333 0
-4.32695e-05 -0.000715901 0
-4.13502e-05 -0.000711333 0
-4.32695e-05 -0.000715901 0
-4.92558e-05 -0.000566486 0
-5.02836e-05 -0.000572421 0
-4.92558e-05 -0.000566486 0
-5.02836e-05 -0.000572421 0
-5.89815e-05 -0.000617444 0
-5.98555e-05 -0.000624929 0
-5.89815e-05 -0.000617444 0
-5.98555e-05 -0.000624929 0
-7.19205e-05 -0.00049188 0
-7.28896e-05 -0.000502234 0
-7.19205e-05 -0.00049188 0
-7.28896e-05 -0.000502234 0
-8.93435e-05 -0.000498919 0
-9.31757e-05 -0.000512556 0
-8.93435e-05 -0.000498919 0
-9.31757e-05 -0.000512556 0
-0.000111259 -0.000405081 0
-0.000119816 -0.000422236 0
-0.000111259 -0.000405081 0
-0.000119816 -0.000422236 0
-0.000138188 -0.000389133 0
-0.000155935 -0.00040986 0
-0.000138188 -0.000389133 0
-0.000155935 -0.00040986 0
-0.000167588 -0.000337478 0
-0.000198396 -0.000359651 0
-0.000167588 -0.000337478 0
-0.000198396 -0.000359651 0
-0.00019622 -0.000307864 0
-0.000243298 -0.000328854 0
-0.00019622 -0.000307864 0
-0.000243298 -0.000328854 0
-0.000217511 -0.00030596 0
-0.000281008 -0.000320504 0
-0.000217511 -0.00030596 0
-0.000281008 -0.000320504 0
-0.000224837 -0.000272347 0
-0.000298663 -0.000275805 0
-0.000224837 -0.000272347 0
-0.000298663 -0.000275805 0
-0.000214444 -0.000347331 0
-0.000286607 -0.000336703 0
-0.000214444 -0.000347331 0
-0.000286607 -0.000336703 0
-0.000187257 -0.000335884 0
-0.00024611 -0.000315478 0
-0.000187257 -0.000335884 0
-0.00024611 -0.000315478 0
-0.000151323 -0.000526481 0
-0.000192546 -0.000500923 0
-0.000151323 -0.000526481 0
-0.000192546 -0.000500923 0
-0.000111821 -0.000535332 0
-0.000136743 -0.000511193 0
-0.000111821 -0.000535332 0
-0.000136743 -0.000511193 0
-7.95654e-05 -0.000834589 0
-9.19271e-05 -0.000813533 0
-7.95654e-05 -0.000834589 0
-9.19271e-05 -0.000813533 0
-4.91322e-05 -0.000791167 0
-5.3817e-05 -0.000777252 0
-4.91322e-05 -0.000791167 0
-5.3817e-05 -0.000777252 0
-3.62049e-05 -0.00115027 0
-3.86092e-05 -0.00113932 0
-3.62049e-05 -0.00115027 0
-3.86092e-05 -0.00113932 0
-1.89109e-05 -0.00095413 0
-1.83611e-05 -0.000946971 0
-1.89109e-05 -0.00095413 0
-1.83611e-05 -0.000946971 0
-1.51496e-05 -0.00137512 0
-1.57007e-05 -0.00137033 0
-1.51496e-05 -0.00137512 0
-1.57007e-05 -0.00137033 0
-3.72637e-06 -0.000963353 0
-1.93827e-06 -0.000962082 0
-3.72637e-06 -0.000963353 0
-1.93827e-06 -0.000962082 0
-1.11907e-05 -0.00153654 0
-1.01932e-05 -0.00153855 0
-1.11907e-05 -0.00153654 0
-1.01932e-05 -0.00153855 0
-1.15325e-05 -0.000863263 0
-1.08182e-05 -0.000864477 0
-1.15325e-05 -0.000863263 0
-1.08182e-05 -0.000864477 0
-1.68834e-05 -0.0017273 0
-1.49584e-05 -0.00172929 0
0.199276 -0.0885459 0
0.1338 -0.0685583 0
0.182129 0.00262231 0
0.129118 -0.0129142 0
0.1338 -0.0685583 0
0.0906609 -0.0541952 0
0.129118 -0.0129142 0
0.0895161 -0.0222969 0
0.0638895 -0.0426382 0
0.0645975 -0.0231764 0
0.0906609 -0.0541952 0
0.0895161 -0.0222969 0
0.0456532 -0.0331956 0
0.0464321 -0.0210827 0
0.0638895 -0.0426382 0
0.0645975 -0.0231764 0
0.0456532 -0.0331956 0
0.0328776 -0.0254823 0
0.0464321 -0.0210827 0
0.0336496 -0.0176441 0
0.0328776 -0.0254823 0
0.0234601 -0.0193217 0
0.0336496 -0.0176441 0
0.0239762 -0.014146 0
0.0165276 -0.0142824 0
0.0169341 -0.0108138 0
0.0234601 -0.0193217 0
0.0239762 -0.014146 0
0.0165276 -0.0142824 0
0.011412 -0.0104609 0
0.0169341 -0.0108138 0
0.011642 -0.00808399 0
0.011412 -0.0104609 0
0.00767182 -0.00749134 0
0.011642 -0.00808399 0
0.00785659 -0.00581674 0
0.00767182 -0.00749134 0
0.00501098 -0.00536264 0
0.00785659 -0.00581674 0
0.00514262 -0.00415009 0
0.00501098 -0.00536264 0
0.00313703 -0.00379317 0
0.00514262 -0.00415009 0
0.00326684 -0.00287547 0
0.00186924 -0.00272553 0
0.00198647 -0.00200833 0
0.00313703 -0.00379317 0
0.00326684 -0.00287547 0
0.00101815 -0.00197393 0
0.00113434 -0.00139253 0
0.00186924 -0.00272553 0
0.00198647 -0.00200833 0
0.00101815 -0.00197393 0
0.000472215 -0.0014906 0
0.00113434 -0.00139253 0
0.000574838 -0.000992128 0
0.000472215 -0.0014906 0
0.000128619 -0.00116549 0
0.000574838 -0.000992128 0
0.000224639 -0.000723084 0
0.000128619 -0.00116549 0
-8.10974e-05 -0.00096834 0
0.000224639 -0.000723084 0
8.90958e-06 -0.000555344 0
-8.10974e-05 -0.00096834 0
-0.000198406 -0.000846217 0
8.90958e-06 -0.000555344 0
-0.000107395 -0.000452018 0
-0.000198406 -0.000846217 0
-0.000263714 -0.000778163 0
-0.000107395 -0.000452018 0
-0.000173723 -0.000398741 0