# vtk DataFile Version 3.0
#This file was generated by the deal.II library on 2016/12/20 at 10:56:58
ASCII
DATASET UNSTRUCTURED_GRID

POINTS 7384 double
-1 0.5 0
-0.978723 0.478723 0
-0.970149 0.5 0
-0.964976 0.485465 0
0.12 -0.5 0
0.15 -0.5 0
0.119014 -0.4708 0
0.15 -0.471429 0
0.11755 -0.441479 0
0.119014 -0.4708 0
0.15 -0.442857 0
0.15 -0.471429 0
0.117242 -0.412206 0
0.11755 -0.441479 0
0.15 -0.414286 0
0.15 -0.442857 0
0.118129 -0.383064 0
0.117242 -0.412206 0
0.15 -0.385714 0
0.15 -0.414286 0
0.12021 -0.354337 0
0.118129 -0.383064 0
0.15 -0.357143 0
0.15 -0.385714 0
0.121793 -0.32584 0
0.12021 -0.354337 0
0.15 -0.328571 0
0.15 -0.357143 0
0.122717 -0.296869 0
0.121793 -0.32584 0
0.15 -0.3 0
0.15 -0.328571 0
0.123759 -0.266752 0
0.122717 -0.296869 0
0.153091 -0.267708 0
0.15 -0.3 0
0.18456 -0.26795 0
0.153091 -0.267708 0
0.183333 -0.3 0
0.15 -0.3 0
0.216606 -0.268111 0
0.18456 -0.26795 0
0.216667 -0.3 0
0.183333 -0.3 0
0.24835 -0.26841 0
0.216606 -0.268111 0
0.25 -0.3 0
0.216667 -0.3 0
0.278782 -0.268564 0
0.24835 -0.26841 0
0.279437 -0.298917 0
0.25 -0.3 0
0.279638 -0.328111 0
0.279437 -0.298917 0
0.25 -0.328571 0
0.25 -0.3 0
0.27971 -0.356801 0
0.279638 -0.328111 0
0.25 -0.357143 0
0.25 -0.328571 0
0.279677 -0.385395 0
0.27971 -0.356801 0
0.25 -0.385714 0
0.25 -0.357143 0
0.279641 -0.413938 0
0.279677 -0.385395 0
0.25 -0.414286 0
0.25 -0.385714 0
0.279666 -0.442534 0
0.279641 -0.413938 0
0.25 -0.442857 0
0.25 -0.414286 0
0.279811 -0.471266 0
0.279666 -0.442534 0
0.25 -0.471429 0
0.25 -0.442857 0
0.28 -0.5 0
0.279811 -0.471266 0
0.25 -0.5 0
0.25 -0.471429 0
0.970149 0.5 0
0.970096 0.46978 0
1 0.5 0
1 0.469697 0
0.940299 0.5 0
0.940231 0.46984 0
0.970149 0.5 0
0.970096 0.46978 0
0.910448 0.5 0
0.910371 0.469856 0
0.940299 0.5 0
0.940231 0.46984 0
0.880597 0.5 0
0.880527 0.469909 0
0.910448 0.5 0
0.910371 0.469856 0
0.850746 0.5 0
0.850684 0.469926 0
0.880597 0.5 0
0.880527 0.469909 0
0.820896 0.5 0
0.820842 0.469978 0
0.850746 0.5 0
0.850684 0.469926 0
0.791045 0.5 0
0.791001 0.470016 0
0.820896 0.5 0
0.820842 0.469978 0
0.761194 0.5 0
0.761159 0.470055 0
0.791045 0.5 0
0.791001 0.470016 0
0.731343 0.5 0
0.731316 0.470091 0
0.761194 0.5 0
0.761159 0.470055 0
0.701493 0.5 0
0.701472 0.470118 0
0.731343 0.5 0
0.731316 0.470091 0
0.671642 0.5 0
0.671627 0.470134 0
0.701493 0.5 0
0.701472 0.470118 0
0.641791 0.5 0
0.64178 0.470142 0
0.671642 0.5 0
0.671627 0.470134 0
0.641791 0.5 0
0.61194 0.5 0
0.64178 0.470142 0
0.611934 0.470065 0
0.58209 0.5 0
0.582089 0.470002 0
0.61194 0.5 0
0.611934 0.470065 0
0.552239 0.5 0
0.552248 0.469853 0
0.58209 0.5 0
0.582089 0.470002 0
0.522388 0.5 0
0.522413 0.469718 0
0.552239 0.5 0
0.552248 0.469853 0
0.492537 0.5 0
0.492577 0.469656 0
0.522388 0.5 0
0.522413 0.469718 0
0.462687 0.5 0
0.462743 0.469571 0
0.492537 0.5 0
0.492577 0.469656 0
0.432836 0.5 0
0.432895 0.46963 0
0.462687 0.5 0
0.462743 0.469571 0
0.402985 0.5 0
0.403046 0.469669 0
0.432836 0.5 0
0.432895 0.46963 0
0.373134 0.5 0
0.373191 0.469745 0
0.402985 0.5 0
0.403046 0.469669 0
0.343284 0.5 0
0.343335 0.469723 0
0.373134 0.5 0
0.373191 0.469745 0
0.313433 0.5 0
0.313478 0.469741 0
0.343284 0.5 0
0.343335 0.469723 0
0.283582 0.5 0
0.283622 0.469783 0
0.313433 0.5 0
0.313478 0.469741 0
0.253731 0.5 0
0.253768 0.469742 0
0.283582 0.5 0
0.283622 0.469783 0
0.223881 0.5 0
0.223918 0.469737 0
0.253731 0.5 0
0.253768 0.469742 0
0.19403 0.5 0
0.194064 0.46981 0
0.223881 0.5 0
0.223918 0.469737 0
0.164179 0.5 0
0.16421 0.469881 0
0.19403 0.5 0
0.194064 0.46981 0
0.134328 0.5 0
0.134355 0.46994 0
0.164179 0.5 0
0.16421 0.469881 0
0.104478 0.5 0
0.1045 0.469997 0
0.134328 0.5 0
0.134355 0.46994 0
0.074627 0.5 0
0.074645 0.470051 0
0.104478 0.5 0
0.1045 0.469997 0
0.044776 0.5 0
0.04479 0.470093 0
0.074627 0.5 0
0.074645 0.470051 0
0.014925 0.5 0
0.014935 0.47012 0
0.044776 0.5 0
0.04479 0.470093 0
-0.014925 0.5 0
-0.014918 0.470135 0
0.014925 0.5 0
0.014935 0.47012 0
-0.044776 0.5 0
-0.044771 0.470143 0
-0.014925 0.5 0
-0.014918 0.470135 0
-0.074627 0.5 0
-0.074623 0.470146 0
-0.044776 0.5 0
-0.044771 0.470143 0
-0.104478 0.5 0
-0.104496 0.469979 0
-0.074627 0.5 0
-0.074623 0.470146 0
-0.134328 0.5 0
-0.134359 0.469935 0
-0.104478 0.5 0
-0.104496 0.469979 0
-0.164179 0.5 0
-0.164225 0.469839 0
-0.134328 0.5 0
-0.134359 0.469935 0
-0.164179 0.5 0
-0.19403 0.5 0
-0.164225 0.469839 0
-0.194083 0.469797 0
-0.223881 0.5 0
-0.22394 0.469753 0
-0.19403 0.5 0
-0.194083 0.469797 0
-0.253731 0.5 0
-0.253798 0.469819 0
-0.223881 0.5 0
-0.22394 0.469753 0
-0.283582 0.5 0
-0.283647 0.470019 0
-0.253731 0.5 0
-0.253798 0.469819 0
-0.313433 0.5 0
-0.313491 0.470151 0
-0.283582 0.5 0
-0.283647 0.470019 0
-0.343284 0.5 0
-0.343348 0.470381 0
-0.313433 0.5 0
-0.313491 0.470151 0
-0.343284 0.5 0
-0.373134 0.5 0
-0.343348 0.470381 0
-0.373195 0.470395 0
-0.373134 0.5 0
-0.402985 0.5 0
-0.373195 0.470395 0
-0.403049 0.470404 0
-0.432836 0.5 0
-0.432937 0.470297 0
-0.402985 0.5 0
-0.403049 0.470404 0
-0.462687 0.5 0
-0.462848 0.469995 0
-0.432836 0.5 0
-0.432937 0.470297 0
-0.492537 0.5 0
-0.492807 0.469765 0
-0.462687 0.5 0
-0.462848 0.469995 0
-0.522388 0.5 0
-0.52276 0.46958 0
-0.492537 0.5 0
-0.492807 0.469765 0
-0.552239 0.5 0
-0.55273 0.469652 0
-0.522388 0.5 0
-0.52276 0.46958 0
-0.58209 0.5 0
-0.582662 0.469731 0
-0.552239 0.5 0
-0.55273 0.469652 0
-0.61194 0.5 0
-0.612594 0.469999 0
-0.58209 0.5 0
-0.582662 0.469731 0
-0.641791 0.5 0
-0.642647 0.470419 0
-0.61194 0.5 0
-0.612594 0.469999 0
-0.671642 0.5 0
-0.672638 0.470543 0
-0.641791 0.5 0
-0.642647 0.470419 0
-0.701493 0.5 0
-0.702968 0.4698 0
-0.671642 0.5 0
-0.672638 0.470543 0
-0.701493 0.5 0
-0.731343 0.5 0
-0.702968 0.4698 0
-0.733232 0.468149 0
-0.820896 0.5 0
-0.822797 0.47207 0
-0.791045 0.5 0
-0.795702 0.469563 0
0.31 -0.5 0
0.309694 -0.471123 0
0.28 -0.5 0
0.279811 -0.471266 0
0.31 -0.5 0
0.34 -0.5 0
0.309694 -0.471123 0
0.339686 -0.471033 0
0.37 -0.5 0
0.369721 -0.471055 0
0.34 -0.5 0
0.339686 -0.471033 0
0.37 -0.5 0
0.4 -0.5 0
0.369721 -0.471055 0
0.399756 -0.470957 0
0.4 -0.5 0
0.43 -0.5 0
0.399756 -0.470957 0
0.429805 -0.470822 0
0.43 -0.5 0
0.46 -0.5 0
0.429805 -0.470822 0
0.459835 -0.470712 0
0.46 -0.5 0
0.49 -0.5 0
0.459835 -0.470712 0
0.489873 -0.470554 0
0.49 -0.5 0
0.52 -0.5 0
0.489873 -0.470554 0
0.519906 -0.470379 0
0.52 -0.5 0
0.55 -0.5 0
0.519906 -0.470379 0
0.54993 -0.470248 0
0.55 -0.5 0
0.58 -0.5 0
0.54993 -0.470248 0
0.579948 -0.470155 0
0.58 -0.5 0
0.61 -0.5 0
0.579948 -0.470155 0
0.609962 -0.470091 0
0.61 -0.5 0
0.64 -0.5 0
0.609962 -0.470091 0
0.639972 -0.47005 0
0.64 -0.5 0
0.67 -0.5 0
0.639972 -0.47005 0
0.66998 -0.470026 0
0.67 -0.5 0
0.7 -0.5 0
0.66998 -0.470026 0
0.699986 -0.470013 0
0.7 -0.5 0
0.73 -0.5 0
0.699986 -0.470013 0
0.72999 -0.470006 0
0.73 -0.5 0
0.76 -0.5 0
0.72999 -0.470006 0
0.759994 -0.470003 0
0.76 -0.5 0
0.79 -0.5 0
0.759994 -0.470003 0
0.78998 -0.469916 0
0.79 -0.5 0
0.82 -0.5 0
0.78998 -0.469916 0
0.819956 -0.469877 0
0.82 -0.5 0
0.85 -0.5 0
0.819956 -0.469877 0
0.849929 -0.469833 0
0.85 -0.5 0
0.88 -0.5 0
0.849929 -0.469833 0
0.879924 -0.469805 0
0.88 -0.5 0
0.91 -0.5 0
0.879924 -0.469805 0
0.909913 -0.469792 0
0.91 -0.5 0
0.94 -0.5 0
0.909913 -0.469792 0
0.939922 -0.469775 0
0.94 -0.5 0
0.97 -0.5 0
0.939922 -0.469775 0
0.969956 -0.46974 0
0.97 -0.5 0
1 -0.5 0
0.969956 -0.46974 0
1 -0.469697 0
-0.595745 0.095745 0
-0.574468 0.074468 0
-0.574431 0.117764 0
-0.553204 0.096309 0
-0.553191 0.053191 0
-0.53184 0.075023 0
-0.574468 0.074468 0
-0.553204 0.096309 0
-0.553191 0.053191 0
-0.531915 0.031915 0
-0.53184 0.075023 0
-0.510492 0.053733 0
-0.531915 0.031915 0
-0.510638 0.010638 0
-0.510492 0.053733 0
-0.489127 0.032461 0
-0.510638 0.010638 0
-0.489362 -0.010638 0
-0.489127 0.032461 0
-0.467791 0.011178 0
-0.489362 -0.010638 0
-0.468085 -0.031915 0
-0.467791 0.011178 0
-0.446536 -0.010172 0
-0.446809 -0.053191 0
-0.42524 -0.031466 0
-0.468085 -0.031915 0
-0.446536 -0.010172 0
-0.425532 -0.074468 0
-0.404012 -0.052824 0
-0.446809 -0.053191 0
-0.42524 -0.031466 0
-0.425532 -0.074468 0
-0.404255 -0.095745 0
-0.404012 -0.052824 0
-0.382783 -0.074175 0
-0.404255 -0.095745 0
-0.382979 -0.117021 0
-0.382783 -0.074175 0
-0.361545 -0.095511 0
-0.382979 -0.117021 0
-0.361702 -0.138298 0
-0.361545 -0.095511 0
-0.340288 -0.116831 0
-0.361702 -0.138298 0
-0.340426 -0.159574 0
-0.340288 -0.116831 0
-0.319034 -0.138159 0
-0.340426 -0.159574 0
-0.319149 -0.180851 0
-0.319034 -0.138159 0
-0.297766 -0.159484 0
-0.319149 -0.180851 0
-0.297872 -0.202128 0
-0.297766 -0.159484 0
-0.276489 -0.180797 0
-0.297872 -0.202128 0
-0.276596 -0.223404 0
-0.276489 -0.180797 0
-0.255087 -0.202105 0
-0.255319 -0.244681 0
-0.233674 -0.223466 0
-0.276596 -0.223404 0
-0.255087 -0.202105 0
-0.234043 -0.265957 0
-0.212119 -0.244916 0
-0.255319 -0.244681 0
-0.233674 -0.223466 0
-0.234043 -0.265957 0
-0.212766 -0.287234 0
-0.212119 -0.244916 0
-0.190657 -0.266392 0
-0.191489 -0.308511 0
-0.169261 -0.287934 0
-0.212766 -0.287234 0
-0.190657 -0.266392 0
-0.170213 -0.329787 0
-0.147854 -0.309624 0
-0.191489 -0.308511 0
-0.169261 -0.287934 0
-0.170213 -0.329787 0
-0.148936 -0.351064 0
-0.147854 -0.309624 0
-0.126431 -0.331364 0
-0.12766 -0.37234 0
-0.105256 -0.353368 0
-0.148936 -0.351064 0
-0.126431 -0.331364 0
-0.12766 -0.37234 0
-0.106383 -0.393617 0
-0.105256 -0.353368 0
-0.083924 -0.375263 0
-0.106383 -0.393617 0
-0.085106 -0.414894 0
-0.083924 -0.375263 0
-0.062097 -0.396824 0
-0.085106 -0.414894 0
-0.06383 -0.43617 0
-0.062097 -0.396824 0
-0.040132 -0.418076 0
-0.06383 -0.43617 0
-0.042553 -0.457447 0
-0.040132 -0.418076 0
-0.019646 -0.439891 0
-0.042553 -0.457447 0
-0.021277 -0.478723 0
-0.019646 -0.439891 0
-0.002475 -0.461393 0
-0.021277 -0.478723 0
0 -0.5 0
-0.002475 -0.461393 0
0.009599 -0.478226 0
0 -0.5 0
0.03 -0.5 0
0.009599 -0.478226 0
0.029922 -0.474701 0
0.03 -0.5 0
0.06 -0.5 0
0.029922 -0.474701 0
0.057397 -0.471689 0
0.06 -0.5 0
0.09 -0.5 0
0.057397 -0.471689 0
0.08796 -0.470463 0
0.09 -0.5 0
0.12 -0.5 0
0.08796 -0.470463 0
0.119014 -0.4708 0
[...]
POINT_DATA 7384
VECTORS momentum double
-0.00149969 0.000494098 0
-0.0117744 0.0107517 0
-0.0127394 0.000143429 0
-0.0178503 0.00667818 0
6.56505e-05 -0.000407495 0
7.85813e-05 -0.000414409 0
0.000115962 -0.000965427 0
6.70278e-05 -0.00091036 0
-7.23384e-05 -0.000685977 0
0.000115962 -0.000965427 0
8.29849e-05 -0.000718998 0
6.70278e-05 -0.00091036 0
7.17357e-05 -0.00119233 0
-7.23384e-05 -0.000685977 0
1.34948e-06 -0.00126988 0
8.29849e-05 -0.000718998 0
0.000184013 -0.000971756 0
7.17357e-05 -0.00119233 0
-1.49733e-06 -0.00109085 0
1.34948e-06 -0.00126988 0
0.00021621 -0.00136546 0
0.000184013 -0.000971756 0
-3.90314e-05 -0.00131097 0
-1.49733e-06 -0.00109085 0
0.000458791 -0.00113484 0
0.00021621 -0.00136546 0
1.99927e-05 -0.00109928 0
-3.90314e-05 -0.00131097 0
0.000263414 -0.00172063 0
0.000458791 -0.00113484 0
4.30409e-05 -0.000704743 0
1.99927e-05 -0.00109928 0
-0.000104935 -0.00129041 0
0.000263414 -0.00172063 0
-0.000439992 -0.00126145 0
4.30409e-05 -0.000704743 0
-9.23061e-05 -0.00155643 0
-0.000439992 -0.00126145 0
0.000159312 -0.000458243 0
4.30409e-05 -0.000704743 0
0.000102421 -0.00152814 0
-9.23061e-05 -0.00155643 0
-0.000107695 -0.000426085 0
0.000159312 -0.000458243 0
0.000444118 -0.00120016 0
0.000102421 -0.00152814 0
4.31116e-05 -0.000729109 0
-0.000107695 -0.000426085 0
0.000208217 -0.000995867 0
0.000444118 -0.00120016 0
-4.40722e-05 -0.00144543 0
4.31116e-05 -0.000729109 0
-0.000100614 -0.00083269 0
-4.40722e-05 -0.00144543 0
-7.27915e-05 -0.000853929 0
4.31116e-05 -0.000729109 0
6.32045e-06 -0.00106439 0
-0.000100614 -0.00083269 0
1.6667e-05 -0.000989491 0
-7.27915e-05 -0.000853929 0
-5.57771e-06 -0.000646339 0
6.32045e-06 -0.00106439 0
-1.32009e-05 -0.000686638 0
1.6667e-05 -0.000989491 0
-8.08454e-06 -0.000939096 0
-5.57771e-06 -0.000646339 0
4.74818e-06 -0.000916439 0
-1.32009e-05 -0.000686638 0
-8.68067e-06 -0.00050842 0
-8.08454e-06 -0.000939096 0
-3.8729e-06 -0.00051972 0
4.74818e-06 -0.000916439 0
-2.12369e-05 -0.000883784 0
-8.68067e-06 -0.00050842 0
1.38748e-07 -0.00087637 0
-3.8729e-06 -0.00051972 0
-2.10863e-06 -0.00038941 0
-2.12369e-05 -0.000883784 0
-3.15912e-07 -0.000391793 0
1.38748e-07 -0.00087637 0
-8.37413e-05 -0.000654671 0
-7.3999e-05 -0.00172049 0
-7.73264e-05 -0.000654849 0
-6.4753e-05 -0.00172033 0
-8.73966e-05 -0.000655218 0
-8.08526e-05 -0.00172306 0
-8.37413e-05 -0.000654671 0
-7.3999e-05 -0.00172049 0
-8.75568e-05 -0.000654834 0
-8.06358e-05 -0.00172551 0
-8.73966e-05 -0.000655218 0
-8.08526e-05 -0.00172306 0
-8.61368e-05 -0.000653933 0
-7.96496e-05 -0.00172723 0
-8.75568e-05 -0.000654834 0
-8.06358e-05 -0.00172551 0
-8.15957e-05 -0.000653221 0
-7.41312e-05 -0.00172911 0
-8.61368e-05 -0.000653933 0
-7.96496e-05 -0.00172723 0
-7.51568e-05 -0.000651771 0
-6.71852e-05 -0.00173073 0
-8.15957e-05 -0.000653221 0
-7.41312e-05 -0.00172911 0
-6.4677e-05 -0.000650994 0
-5.70723e-05 -0.00173249 0
-7.51568e-05 -0.000651771 0
-6.71852e-05 -0.00173073 0
-5.26866e-05 -0.000649393 0
-4.4801e-05 -0.00173503 0
-6.4677e-05 -0.000650994 0
-5.70723e-05 -0.00173249 0
-3.64501e-05 -0.000648115 0
-3.13553e-05 -0.00173779 0
-5.26866e-05 -0.000649393 0
-4.4801e-05 -0.00173503 0
-1.8894e-05 -0.000647289 0
-1.5602e-05 -0.00174125 0
-3.64501e-05 -0.000648115 0
-3.13553e-05 -0.00173779 0
2.1494e-06 -0.000646017 0
1.03104e-06 -0.00174458 0
-1.8894e-05 -0.000647289 0
-1.5602e-05 -0.00174125 0
2.45361e-05 -0.000645255 0
1.41821e-05 -0.00174925 0
2.1494e-06 -0.000646017 0
1.03104e-06 -0.00174458 0
2.45361e-05 -0.000645255 0
4.37499e-05 -0.000645826 0
1.41821e-05 -0.00174925 0
2.80759e-05 -0.00175464 0
6.14164e-05 -0.000646154 0
3.82076e-05 -0.00176197 0
4.37499e-05 -0.000645826 0
2.80759e-05 -0.00175464 0
7.37682e-05 -0.000648841 0
4.63198e-05 -0.0017684 0
6.14164e-05 -0.000646154 0
3.82076e-05 -0.00176197 0
7.6582e-05 -0.000651503 0
5.62574e-05 -0.00177239 0
7.37682e-05 -0.000648841 0
4.63198e-05 -0.0017684 0
7.8902e-05 -0.00065272 0
6.25907e-05 -0.00177293 0
7.6582e-05 -0.000651503 0
5.62574e-05 -0.00177239 0
6.95347e-05 -0.000654721 0
6.18544e-05 -0.00177197 0
7.8902e-05 -0.00065272 0
6.25907e-05 -0.00177293 0
5.10133e-05 -0.000655331 0
5.49964e-05 -0.00177021 0
6.95347e-05 -0.000654721 0
6.18544e-05 -0.00177197 0
3.05794e-05 -0.000654428 0
4.06618e-05 -0.00176846 0
5.10133e-05 -0.000655331 0
5.49964e-05 -0.00177021 0
1.38169e-05 -0.000652676 0
2.11648e-05 -0.00176947 0
3.05794e-05 -0.000654428 0
4.06618e-05 -0.00176846 0
-1.68364e-06 -0.000652783 0
8.56383e-07 -0.00177017 0
1.38169e-05 -0.000652676 0
2.11648e-05 -0.00176947 0
-1.70614e-05 -0.000652614 0
-1.32909e-05 -0.00177473 0
-1.68364e-06 -0.000652783 0
8.56383e-07 -0.00177017 0
-2.76758e-05 -0.000652778 0
-2.86536e-05 -0.0017761 0
-1.70614e-05 -0.000652614 0
-1.32909e-05 -0.00177473 0
-2.94256e-05 -0.000654028 0
-3.62431e-05 -0.0017732 0
-2.76758e-05 -0.000652778 0
-2.86536e-05 -0.0017761 0
-3.53428e-05 -0.000657424 0
-3.94792e-05 -0.00176653 0
-2.94256e-05 -0.000654028 0
-3.62431e-05 -0.0017732 0
-3.35086e-05 -0.000661354 0
-2.49569e-05 -0.00175576 0
-3.53428e-05 -0.000657424 0
-3.94792e-05 -0.00176653 0
-1.75801e-05 -0.000660198 0
3.41009e-06 -0.00174615 0
-3.35086e-05 -0.000661354 0
-2.49569e-05 -0.00175576 0
2.52708e-05 -0.000657104 0
5.36083e-05 -0.00173207 0
-1.75801e-05 -0.000660198 0
3.41009e-06 -0.00174615 0
9.0163e-05 -0.00065238 0
0.000126252 -0.00171202 0
2.52708e-05 -0.000657104 0
5.36083e-05 -0.00173207 0
0.000189952 -0.000646248 0
0.000233125 -0.00168036 0
9.0163e-05 -0.00065238 0
0.000126252 -0.00171202 0
0.000321683 -0.000639725 0
0.000368716 -0.00163418 0
0.000189952 -0.000646248 0
0.000233125 -0.00168036 0
0.000491909 -0.000635569 0
0.000543428 -0.00156275 0
0.000321683 -0.000639725 0
0.000368716 -0.00163418 0
0.000689938 -0.000631746 0
0.000754661 -0.00146632 0
0.000491909 -0.000635569 0
0.000543428 -0.00156275 0
0.000908979 -0.000626674 0
0.000986113 -0.00132984 0
0.000689938 -0.000631746 0
0.000754661 -0.00146632 0
0.00112494 -0.000621899 0
0.00121139 -0.00114972 0
0.000908979 -0.000626674 0
0.000986113 -0.00132984 0
0.0012694 -0.000616794 0
0.00137826 -0.000907399 0
0.00112494 -0.000621899 0
0.00121139 -0.00114972 0
0.00131085 -0.00061214 0
0.00144969 -0.000601398 0
0.0012694 -0.000616794 0
0.00137826 -0.000907399 0
0.00112163 -0.000606235 0
0.00129063 -0.000217421 0
0.00131085 -0.00061214 0
0.00144969 -0.000601398 0
0.00112163 -0.000606235 0
0.00064763 -0.000599709 0
0.00129063 -0.000217421 0
0.000862589 0.00025203 0
-0.000359084 -0.000582862 0
-9.14327e-05 0.000812089 0
0.00064763 -0.000599709 0
0.000862589 0.00025203 0
-0.00193713 -0.000563934 0
-0.00161748 0.00150581 0
-0.000359084 -0.000582862 0
-9.14327e-05 0.000812089 0
-0.00454292 -0.000532699 0
-0.00419099 0.00233368 0
-0.00193713 -0.000563934 0
-0.00161748 0.00150581 0
-0.0081632 -0.000500882 0
-0.00778926 0.00338044 0
-0.00454292 -0.000532699 0
-0.00419099 0.00233368 0
-0.0135456 -0.000450123 0
-0.0131781 0.00461789 0
-0.0081632 -0.000500882 0
-0.00778926 0.00338044 0
-0.0135456 -0.000450123 0
-0.0205027 -0.000398832 0
-0.0131781 0.00461789 0
-0.0201785 0.00627456 0
-0.0205027 -0.000398832 0
-0.0302434 -0.000328959 0
-0.0201785 0.00627456 0
-0.0299672 0.00823724 0
-0.0421751 -0.000265125 0
-0.0420478 0.0108503 0
-0.0302434 -0.000328959 0
-0.0299672 0.00823724 0
-0.0581585 -0.000186644 0
-0.0581157 0.0138649 0
-0.0421751 -0.000265125 0
-0.0420478 0.0108503 0
-0.0767213 -0.000126233 0
-0.0770311 0.0176577 0
-0.0581585 -0.000186644 0
-0.0581157 0.0138649 0
-0.100443 -6.21207e-05 0
-0.10086 0.0212826 0
-0.0767213 -0.000126233 0
-0.0770311 0.0176577 0
-0.126284 -9.43294e-06 0
-0.127359 0.0258303 0
-0.100443 -6.21207e-05 0
-0.10086 0.0212826 0
-0.158424 8.30087e-06 0
-0.159217 0.0298418 0
-0.126284 -9.43294e-06 0
-0.127359 0.0258303 0
-0.19185 0.000113929 0
-0.193723 0.0358524 0
-0.158424 8.30087e-06 0
-0.159217 0.0298418 0
-0.234443 -1.92865e-05 0
-0.233867 0.0409137 0
-0.19185 0.000113929 0
-0.193723 0.0358524 0
-0.277529 0.00113838 0
-0.27846 0.0487279 0
-0.234443 -1.92865e-05 0
-0.233867 0.0409137 0
-0.331733 0.00105978 0
-0.327034 0.0444468 0
-0.277529 0.00113838 0
-0.27846 0.0487279 0
-0.331733 0.00105978 0
-0.359049 0.000263114 0
-0.327034 0.0444468 0
-0.375302 0.0276099 0
-0.295835 -0.00323647 0
-0.282077 -0.045533 0
-0.341112 -0.00153576 0
-0.333255 -0.0648788 0
-1.86603e-05 -0.000397403 0
-4.03517e-05 -0.000882332 0
-2.10863e-06 -0.00038941 0
-2.12369e-05 -0.000883784 0
-1.86603e-05 -0.000397403 0
-4.35628e-05 -0.000401154 0
-4.03517e-05 -0.000882332 0
-5.24379e-05 -0.000884364 0
-6.46017e-05 -0.000405004 0
-7.16525e-05 -0.000882541 0
-4.35628e-05 -0.000401154 0
-5.24379e-05 -0.000884364 0
-6.46017e-05 -0.000405004 0
-7.85479e-05 -0.000407414 0
-7.16525e-05 -0.000882541 0
-8.82177e-05 -0.000883491 0
-7.85479e-05 -0.000407414 0
-9.12702e-05 -0.000410617 0
-8.82177e-05 -0.000883491 0
-0.000101828 -0.000885185 0
-9.12702e-05 -0.000410617 0
-0.000102963 -0.000412286 0
-0.000101828 -0.000885185 0
-0.000110655 -0.000889737 0
-0.000102963 -0.000412286 0
-0.000110554 -0.000413006 0
-0.000110655 -0.000889737 0
-0.000121203 -0.00089494 0
-0.000110554 -0.000413006 0
-0.000117579 -0.000415274 0
-0.000121203 -0.00089494 0
-0.000130922 -0.000900097 0
-0.000117579 -0.000415274 0
-0.000126009 -0.000417672 0
-0.000130922 -0.000900097 0
-0.000137038 -0.000904248 0
-0.000126009 -0.000417672 0
-0.000134696 -0.00041962 0
-0.000137038 -0.000904248 0
-0.000142387 -0.000908557 0
-0.000134696 -0.00041962 0
-0.000142093 -0.000420861 0
-0.000142387 -0.000908557 0
-0.00014724 -0.000911906 0
-0.000142093 -0.000420861 0
-0.000149757 -0.000422011 0
-0.00014724 -0.000911906 0
-0.000152568 -0.000914952 0
-0.000149757 -0.000422011 0
-0.000156543 -0.000422433 0
-0.000152568 -0.000914952 0
-0.000157022 -0.000917419 0
-0.000156543 -0.000422433 0
-0.000163847 -0.000422796 0
-0.000157022 -0.000917419 0
-0.000162945 -0.000919848 0
-0.000163847 -0.000422796 0
-0.000169318 -0.000422984 0
-0.000162945 -0.000919848 0
-0.000168428 -0.000922423 0
-0.000169318 -0.000422984 0
-0.000173359 -0.000423211 0
-0.000168428 -0.000922423 0
-0.000175787 -0.00092556 0
-0.000173359 -0.000423211 0
-0.000177528 -0.000423987 0
-0.000175787 -0.00092556 0
-0.000181758 -0.000928151 0
-0.000177528 -0.000423987 0
-0.000182706 -0.00042491 0
-0.000181758 -0.000928151 0
-0.000186252 -0.000931295 0
-0.000182706 -0.00042491 0
-0.000185633 -0.000425904 0
-0.000186252 -0.000931295 0
-0.00018828 -0.00093459 0
-0.000185633 -0.000425904 0
-0.000188822 -0.000426702 0
-0.00018828 -0.00093459 0
-0.00018984 -0.000937845 0
-0.000188822 -0.000426702 0
-0.00018759 -0.000427046 0
-0.00018984 -0.000937845 0
-0.000188113 -0.000941201 0
-0.00018759 -0.000427046 0
-0.000184462 -0.000427564 0
-0.000188113 -0.000941201 0
-0.000184989 -0.000943945 0
-0.000184462 -0.000427564 0
-0.000176668 -0.000427654 0
-0.000184989 -0.000943945 0
-0.000177438 -0.000945999 0
-0.000176668 -0.000427654 0
-0.000168397 -0.000427642 0
-0.000177438 -0.000945999 0
-0.000169957 -0.000946877 0
0.184728 -0.181887 0
0.12489 -0.121162 0
0.211551 -0.0863267 0
0.143606 -0.0822972 0
0.0922477 -0.0920188 0
0.105793 -0.0678695 0
0.12489 -0.121162 0
0.143606 -0.0822972 0
0.0922477 -0.0920188 0
0.0732419 -0.0729653 0
0.105793 -0.0678695 0
0.0820544 -0.0577921 0
0.0732419 -0.0729653 0
0.0602294 -0.0603239 0
0.0820544 -0.0577921 0
0.0663651 -0.0495419 0
0.0602294 -0.0603239 0
0.0509947 -0.051165 0
0.0663651 -0.0495419 0
0.0552368 -0.0433674 0
0.0509947 -0.051165 0
0.0440233 -0.0442799 0
0.0552368 -0.0433674 0
0.0470434 -0.0383873 0
0.0384654 -0.0387739 0
0.0405978 -0.0341956 0
0.0440233 -0.0442799 0
0.0470434 -0.0383873 0
0.0338543 -0.0342013 0
0.0353551 -0.0305957 0
0.0384654 -0.0387739 0
0.0405978 -0.0341956 0
0.0338543 -0.0342013 0
0.0298388 -0.030218 0
0.0353551 -0.0305957 0
0.0308616 -0.0273282 0
0.0298388 -0.030218 0
0.0262648 -0.0266647 0
0.0308616 -0.0273282 0
0.0269283 -0.0243355 0
0.0262648 -0.0266647 0
0.0229992 -0.0234131 0
0.0269283 -0.0243355 0
0.0233792 -0.0215249 0
0.0229992 -0.0234131 0
0.0200089 -0.0204322 0
0.0233792 -0.0215249 0
0.0201614 -0.0188984 0
0.0200089 -0.0204322 0
0.0172532 -0.017683 0
0.0201614 -0.0188984 0
0.0172236 -0.0164311 0
0.0172532 -0.017683 0
0.0147463 -0.0151811 0
0.0172236 -0.0164311 0
0.0145745 -0.0141623 0
0.0147463 -0.0151811 0
0.0124727 -0.0129114 0
0.0145745 -0.0141623 0
0.0121802 -0.0120882 0
0.0104682 -0.0109004 0
0.0100785 -0.0102411 0
0.0124727 -0.0129114 0
0.0121802 -0.0120882 0
0.00869524 -0.00912329 0
0.00819619 -0.00859391 0
0.0104682 -0.0109004 0
0.0100785 -0.0102411 0
0.00869524 -0.00912329 0
0.00719354 -0.00763058 0
0.00819619 -0.00859391 0
0.00662802 -0.00717884 0
0.005882 -0.00633649 0
0.0052734 -0.00595405 0
0.00719354 -0.00763058 0
0.00662802 -0.00717884 0
0.00482279 -0.00530829 0
0.00423534 -0.0049607 0
0.005882 -0.00633649 0
0.0052734 -0.00595405 0
0.00482279 -0.00530829 0
0.00389607 -0.00438329 0
0.00423534 -0.0049607 0
0.00330718 -0.00414329 0
0.0032529 -0.00372752 0
0.0026333 -0.00354471 0
0.00389607 -0.00438329 0
0.00330718 -0.00414329 0
0.0032529 -0.00372752 0
0.00266806 -0.00314601 0
0.0026333 -0.00354471 0
0.0020151 -0.00297865 0
0.00266806 -0.00314601 0
0.00228194 -0.00277427 0
0.0020151 -0.00297865 0
0.00169481 -0.00261121 0
0.00228194 -0.00277427 0
0.00179456 -0.00229104 0
0.00169481 -0.00261121 0
0.00128825 -0.00207488 0
0.00179456 -0.00229104 0
0.00134107 -0.001795 0
0.00128825 -0.00207488 0
0.00124556 -0.00195054 0
0.00134107 -0.001795 0
0.000899772 -0.0012254 0
0.00124556 -0.00195054 0
0.000825457 -0.00108987 0
0.000899772 -0.0012254 0
0.000421821 -0.000588084 0
0.000825457 -0.00108987 0
0.000619246 -0.00121814 0
0.000421821 -0.000588084 0
0.000842272 -0.000282474 0
0.000619246 -0.00121814 0
0.000741652 -0.00093988 0
0.000842272 -0.000282474 0
0.000667654 -0.000380645 0
0.000741652 -0.00093988 0
0.000248555 -0.000951918 0
0.000667654 -0.000380645 0
0.000475737 -0.000456 0
0.000248555 -0.000951918 0
0.000388095 -0.00087298 0
0.000475737 -0.000456 0
6.56505e-05 -0.000407495 0
0.000388095 -0.00087298 0
0.000115962 -0.000965427 0
-0.000177438 -0.000945999 0
-0.000169957 -0.000946877 0
-0.000178729 -0.000639653 0
-0.000171987 -0.000643178 0
-0.000178729 -0.000639653 0
-0.000171987 -0.000643178 0
-0.000183507 -0.00105688 0
-0.000177484 -0.00105979 0
-0.000183507 -0.00105688 0
-0.000177484 -0.00105979 0
-0.000190978 -0.000854232 0
-0.000184356 -0.00085855 0
-0.000190978 -0.000854232 0
-0.000184356 -0.00085855 0
-0.000199623 -0.00119532 0
-0.000195138 -0.00120075 0
-0.000199623 -0.00119532 0
-0.000195138 -0.00120075 0
-0.000211288 -0.00107576 0
-0.000206094 -0.00108174 0
-0.000211288 -0.00107576 0
-0.000206094 -0.00108174 0
-0.000223084 -0.0013606 0
-0.000219488 -0.00136791 0
-0.000238321 -0.00130735 0
-0.000223084 -0.0013606 0
-0.000234485 -0.00131556 0
-0.000219488 -0.00136791 0
-0.000238321 -0.00130735 0
-0.000234485 -0.00131556 0
-0.00025505 -0.00154743 0
-0.000252119 -0.00155674 0
-0.00025505 -0.00154743 0
-0.000252119 -0.00155674 0
-0.000275273 -0.00154283 0
-0.000272732 -0.00155376 0
-0.000275273 -0.00154283 0
-0.000272732 -0.00155376 0
-0.000299274 -0.00174012 0
-0.00029817 -0.00175238 0
-0.000299274 -0.00174012 0
-0.00029817 -0.00175238 0
-0.000327697 -0.00176426 0
-0.000328491 -0.00177886 0
-0.000327697 -0.00176426 0
-0.000328491 -0.00177886 0
-0.000362589 -0.00191111 0
-0.000368567 -0.00192805 0
-0.000362589 -0.00191111 0
-0.000368567 -0.00192805 0
-0.000402946 -0.00194085 0
-0.000416382 -0.00196026 0
-0.000402946 -0.00194085 0
-0.000416382 -0.00196026 0
-0.000449802 -0.002021 0
-0.000475983 -0.00204285 0
-0.000449802 -0.002021 0
-0.000475983 -0.00204285 0
-0.000498522 -0.00203201 0
-0.000541844 -0.00205437 0
-0.000498522 -0.00203201 0
-0.000541844 -0.00205437 0
-0.000544732 -0.00202583 0
-0.000609069 -0.00204633 0
-0.000544732 -0.00202583 0
-0.000609069 -0.00204633 0
-0.000577527 -0.00200296 0
-0.0006626 -0.00201666 0
-0.000577527 -0.00200296 0
-0.0006626 -0.00201666 0
-0.000587528 -0.00190504 0
-0.000686056 -0.00190763 0
-0.000587528 -0.00190504 0
-0.000686056 -0.00190763 0
-0.000567284 -0.00186864 0
-0.000664572 -0.00185709 0
-0.000567284 -0.00186864 0
-0.000664572 -0.00185709 0
-0.000518675 -0.0017089 0
-0.000600339 -0.00168741 0
-0.000518675 -0.0017089 0
-0.000600339 -0.00168741 0
-0.000451911 -0.00171318 0
-0.000511483 -0.00168572 0
-0.000451911 -0.00171318 0
-0.000511483 -0.00168572 0
-0.000377272 -0.00151863 0
-0.00041504 -0.00149145 0
-0.000377272 -0.00151863 0
-0.00041504 -0.00149145 0
-0.000308824 -0.00160047 0
-0.000328496 -0.00157489 0
-0.000308824 -0.00160047 0
-0.000328496 -0.00157489 0
-0.000244096 -0.00135763 0
-0.000251268 -0.0013382 0
-0.000244096 -0.00135763 0
-0.000251268 -0.0013382 0
-0.000199648 -0.00153682 0
-0.000200983 -0.00151942 0
-0.000199648 -0.00153682 0
-0.000200983 -0.00151942 0
-0.000153714 -0.00121098 0
-0.000149529 -0.00119686 0
-0.000153714 -0.00121098 0
-0.000149529 -0.00119686 0
-0.000123597 -0.00153161 0
-0.000118934 -0.00151989 0
-0.000123597 -0.00153161 0
-0.000118934 -0.00151989 0
-9.01819e-05 -0.00106704 0
-8.20771e-05 -0.00105931 0
-9.01819e-05 -0.00106704 0
-8.20771e-05 -0.00105931 0
-8.11844e-05 -0.00159087 0
-7.33694e-05 -0.00158744 0
-8.11844e-05 -0.00159087 0
-7.33694e-05 -0.00158744 0
-7.25452e-05 -0.000898414 0
-6.45488e-05 -0.000895464 0
-7.25452e-05 -0.000898414 0
-6.45488e-05 -0.000895464 0
-7.3999e-05 -0.00172049 0
-6.4753e-05 -0.00172033 0
0.336627 -0.0966837 0
0.211551 -0.0863267 0
0.240845 0.0370304 0
0.190849 -0.0142137 0
0.211551 -0.0863267 0
0.143606 -0.0822972 0
0.190849 -0.0142137 0
0.139921 -0.0309863 0
0.105793 -0.0678695 0
0.107663 -0.0371519 0
0.143606 -0.0822972 0
0.139921 -0.0309863 0
0.105793 -0.0678695 0
0.0820544 -0.0577921 0
0.107663 -0.0371519 0
0.0842979 -0.0363589 0
0.0820544 -0.0577921 0
0.0663651 -0.0495419 0
0.0842979 -0.0363589 0
0.0689399 -0.0348847 0
0.0663651 -0.0495419 0
0.0552368 -0.0433674 0
0.0689399 -0.0348847 0
0.0573603 -0.0323761 0
0.0552368 -0.0433674 0
0.0470434 -0.0383873 0
0.0573603 -0.0323761 0
0.048906 -0.030041 0
0.0405978 -0.0341956 0
0.0420879 -0.027606 0
0.0470434 -0.0383873 0
0.048906 -0.030041 0
0.0353551 -0.0305957 0
0.0365438 -0.0253168 0
0.0405978 -0.0341956 0
0.0420879 -0.027606 0
0.0353551 -0.0305957 0
0.0308616 -0.0273282 0
0.0365438 -0.0253168 0
0.0317727 -0.0230095 0
0.0308616 -0.0273282 0
0.0269283 -0.0243355 0
0.0317727 -0.0230095 0
0.0275914 -0.0207514 0
0.0269283 -0.0243355 0
0.0233792 -0.0215249 0
0.0275914 -0.0207514 0
0.0238496 -0.018521 0
0.0233792 -0.0215249 0
0.0201614 -0.0188984 0
0.0238496 -0.018521 0
0.0204672 -0.0163406 0
0.0201614 -0.0188984 0
0.0172236 -0.0164311 0
0.0204672 -0.0163406 0
0.0174017 -0.0142532 0
0.0172236 -0.0164311 0
0.0145745 -0.0141623 0
0.0174017 -0.0142532 0
0.0146195 -0.0122859 0
0.0145745 -0.0141623 0
0.0121802 -0.0120882 0
0.0146195 -0.0122859 0
0.0121406 -0.0104661 0
0.0100785 -0.0102411 0
0.00996607 -0.00879381 0
0.0121802 -0.0120882 0
0.0121406 -0.0104661 0
0.00819619 -0.00859391 0
0.00807932 -0.00732045 0
0.0100785 -0.0102411 0
0.00996607 -0.00879381 0
0.00819619 -0.00859391 0
0.00662802 -0.00717884 0
0.00807932 -0.00732045 0
0.00648387 -0.00604691 0
0.0052734 -0.00595405 0
0.00509634 -0.00500341 0
0.00662802 -0.00717884 0
0.00648387 -0.00604691 0
0.00423534 -0.0049607 0
0.00398816 -0.00411921 0
0.0052734 -0.00595405 0
0.00509634 -0.00500341 0
0.00423534 -0.0049607 0
0.00330718 -0.00414329 0
0.00398816 -0.00411921 0
0.00299487 -0.00333639 0
0.0026333 -0.00354471 0
0.00231595 -0.00270771 0
0.00330718 -0.00414329 0
0.00299487 -0.00333639 0
0.0026333 -0.00354471 0
0.0020151 -0.00297865 0
0.00231595 -0.00270771 0
0.00168832 -0.00233576 0
0.0020151 -0.00297865 0
0.00169481 -0.00261121 0
0.00168832 -0.00233576 0
0.00148405 -0.00196009 0
0.00169481 -0.00261121 0
0.00128825 -0.00207488 0
0.00148405 -0.00196009 0
0.0009737 -0.00173523 0
0.00128825 -0.00207488 0
0.00124556 -0.00195054 0
0.0009737 -0.00173523 0
0.00104327 -0.00146167 0
0.000824472 -0.000374411 0
0.000741652 -0.00093988 0
0.00032906 -0.000845522 0
0.000248555 -0.000951918 0