# vtk DataFile Version 3.0
#This file was generated by the deal.II library on 2016/12/20 at 10:56:50
ASCII
DATASET UNSTRUCTURED_GRID

POINTS 7312 double
-1 0.5 0
-0.978723 0.478723 0
-0.970149 0.5 0
-0.964976 0.485465 0
0.12 -0.5 0
0.15 -0.5 0
0.119014 -0.4708 0
0.15 -0.471429 0
0.11755 -0.441479 0
0.119014 -0.4708 0
0.15 -0.442857 0
0.15 -0.471429 0
0.117242 -0.412206 0
0.11755 -0.441479 0
0.15 -0.414286 0
0.15 -0.442857 0
0.118129 -0.383064 0
0.117242 -0.412206 0
0.15 -0.385714 0
0.15 -0.414286 0
0.12021 -0.354337 0
0.118129 -0.383064 0
0.15 -0.357143 0
0.15 -0.385714 0
0.121793 -0.32584 0
0.12021 -0.354337 0
0.15 -0.328571 0
0.15 -0.357143 0
0.122717 -0.296869 0
0.121793 -0.32584 0
0.15 -0.3 0
0.15 -0.328571 0
0.123759 -0.266752 0
0.122717 -0.296869 0
0.153091 -0.267708 0
0.15 -0.3 0
0.18456 -0.26795 0
0.153091 -0.267708 0
0.183333 -0.3 0
0.15 -0.3 0
0.216606 -0.268111 0
0.18456 -0.26795 0
0.216667 -0.3 0
0.183333 -0.3 0
0.24835 -0.26841 0
0.216606 -0.268111 0
0.25 -0.3 0
0.216667 -0.3 0
0.278782 -0.268564 0
0.24835 -0.26841 0
0.279437 -0.298917 0
0.25 -0.3 0
0.279638 -0.328111 0
0.279437 -0.298917 0
0.25 -0.328571 0
0.25 -0.3 0
0.27971 -0.356801 0
0.279638 -0.328111 0
0.25 -0.357143 0
0.25 -0.328571 0
0.279677 -0.385395 0
0.27971 -0.356801 0
0.25 -0.385714 0
0.25 -0.357143 0
0.279641 -0.413938 0
0.279677 -0.385395 0
0.25 -0.414286 0
0.25 -0.385714 0
0.279666 -0.442534 0
0.279641 -0.413938 0
0.25 -0.442857 0
0.25 -0.414286 0
0.279811 -0.471266 0
0.279666 -0.442534 0
0.25 -0.471429 0
0.25 -0.442857 0
0.28 -0.5 0
0.279811 -0.471266 0
0.25 -0.5 0
0.25 -0.471429 0
0.970149 0.5 0
0.970096 0.46978 0
1 0.5 0
1 0.469697 0
0.940299 0.5 0
0.940231 0.46984 0
0.970149 0.5 0
0.970096 0.46978 0
0.910448 0.5 0
0.910371 0.469856 0
0.940299 0.5 0
0.940231 0.46984 0
0.880597 0.5 0
0.880527 0.469909 0
0.910448 0.5 0
0.910371 0.469856 0
0.850746 0.5 0
0.850684 0.469926 0
0.880597 0.5 0
0.880527 0.469909 0
0.820896 0.5 0
0.820842 0.469978 0
0.850746 0.5 0
0.850684 0.469926 0
0.791045 0.5 0
0.791001 0.470016 0
0.820896 0.5 0
0.820842 0.469978 0
0.761194 0.5 0
0.761159 0.470055 0
0.791045 0.5 0
0.791001 0.470016 0
0.731343 0.5 0
0.731316 0.470091 0
0.761194 0.5 0
0.761159 0.470055 0
0.701493 0.5 0
0.701472 0.470118 0
0.731343 0.5 0
0.731316 0.470091 0
0.671642 0.5 0
0.671627 0.470134 0
0.701493 0.5 0
0.701472 0.470118 0
0.641791 0.5 0
0.64178 0.470142 0
0.671642 0.5 0
0.671627 0.470134 0
0.641791 0.5 0
0.61194 0.5 0
0.64178 0.470142 0
0.611934 0.470065 0
0.58209 0.5 0
0.582089 0.470002 0
0.61194 0.5 0
0.611934 0.470065 0
0.552239 0.5 0
0.552248 0.469853 0
0.58209 0.5 0
0.582089 0.470002 0
0.522388 0.5 0
0.522413 0.469718 0
0.552239 0.5 0
0.552248 0.469853 0
0.492537 0.5 0
0.492577 0.469656 0
0.522388 0.5 0
0.522413 0.469718 0
0.462687 0.5 0
0.462743 0.469571 0
0.492537 0.5 0
0.492577 0.469656 0
0.432836 0.5 0
0.432895 0.46963 0
0.462687 0.5 0
0.462743 0.469571 0
0.402985 0.5 0
0.403046 0.469669 0
0.432836 0.5 0
0.432895 0.46963 0
0.373134 0.5 0
0.373191 0.469745 0
0.402985 0.5 0
0.403046 0.469669 0
0.343284 0.5 0
0.343335 0.469723 0
0.373134 0.5 0
0.373191 0.469745 0
0.313433 0.5 0
0.313478 0.469741 0
0.343284 0.5 0
0.343335 0.469723 0
0.283582 0.5 0
0.283622 0.469783 0
0.313433 0.5 0
0.313478 0.469741 0
0.253731 0.5 0
0.253768 0.469742 0
0.283582 0.5 0
0.283622 0.469783 0
0.223881 0.5 0
0.223918 0.469737 0
0.253731 0.5 0
0.253768 0.469742 0
0.19403 0.5 0
0.194064 0.46981 0
0.223881 0.5 0
0.223918 0.469737 0
0.164179 0.5 0
0.16421 0.469881 0
0.19403 0.5 0
0.194064 0.46981 0
0.134328 0.5 0
0.134355 0.46994 0
0.164179 0.5 0
0.16421 0.469881 0
0.104478 0.5 0
0.1045 0.469997 0
0.134328 0.5 0
0.134355 0.46994 0
0.074627 0.5 0
0.074645 0.470051 0
0.104478 0.5 0
0.1045 0.469997 0
0.044776 0.5 0
0.04479 0.470093 0
0.074627 0.5 0
0.074645 0.470051 0
0.014925 0.5 0
0.014935 0.47012 0
0.044776 0.5 0
0.04479 0.470093 0
-0.014925 0.5 0
-0.014918 0.470135 0
0.014925 0.5 0
0.014935 0.47012 0
-0.044776 0.5 0
-0.044771 0.470143 0
-0.014925 0.5 0
-0.014918 0.470135 0
-0.074627 0.5 0
-0.074623 0.470146 0
-0.044776 0.5 0
-0.044771 0.470143 0
-0.104478 0.5 0
-0.104496 0.469979 0
-0.074627 0.5 0
-0.074623 0.470146 0
-0.134328 0.5 0
-0.134359 0.469935 0
-0.104478 0.5 0
-0.104496 0.469979 0
-0.164179 0.5 0
-0.164225 0.469839 0
-0.134328 0.5 0
-0.134359 0.469935 0
-0.164179 0.5 0
-0.19403 0.5 0
-0.164225 0.469839 0
-0.194083 0.469797 0
-0.223881 0.5 0
-0.22394 0.469753 0
-0.19403 0.5 0
-0.194083 0.469797 0
-0.253731 0.5 0
-0.253798 0.469819 0
-0.223881 0.5 0
-0.22394 0.469753 0
-0.283582 0.5 0
-0.283647 0.470019 0
-0.253731 0.5 0
-0.253798 0.469819 0
-0.313433 0.5 0
-0.313491 0.470151 0
-0.283582 0.5 0
-0.283647 0.470019 0
-0.343284 0.5 0
-0.343348 0.470381 0
-0.313433 0.5 0
-0.313491 0.470151 0
-0.343284 0.5 0
-0.373134 0.5 0
-0.343348 0.470381 0
-0.373195 0.470395 0
-0.373134 0.5 0
-0.402985 0.5 0
-0.373195 0.470395 0
-0.403049 0.470404 0
-0.432836 0.5 0
-0.432937 0.470297 0
-0.402985 0.5 0
-0.403049 0.470404 0
-0.462687 0.5 0
-0.462848 0.469995 0
-0.432836 0.5 0
-0.432937 0.470297 0
-0.492537 0.5 0
-0.492807 0.469765 0
-0.462687 0.5 0
-0.462848 0.469995 0
-0.522388 0.5 0
-0.52276 0.46958 0
-0.492537 0.5 0
-0.492807 0.469765 0
-0.552239 0.5 0
-0.55273 0.469652 0
-0.522388 0.5 0
-0.52276 0.46958 0
-0.58209 0.5 0
-0.582662 0.469731 0
-0.552239 0.5 0
-0.55273 0.469652 0
-0.61194 0.5 0
-0.612594 0.469999 0
-0.58209 0.5 0
-0.582662 0.469731 0
-0.641791 0.5 0
-0.642647 0.470419 0
-0.61194 0.5 0
-0.612594 0.469999 0
-0.671642 0.5 0
-0.672638 0.470543 0
-0.641791 0.5 0
-0.642647 0.470419 0
-0.701493 0.5 0
-0.702968 0.4698 0
-0.671642 0.5 0
-0.672638 0.470543 0
-0.820896 0.5 0
-0.822797 0.47207 0
-0.791045 0.5 0
-0.795702 0.469563 0
0.31 -0.5 0
0.309694 -0.471123 0
0.28 -0.5 0
0.279811 -0.471266 0
0.31 -0.5 0
0.34 -0.5 0
0.309694 -0.471123 0
0.339686 -0.471033 0
0.37 -0.5 0
0.369721 -0.471055 0
0.34 -0.5 0
0.339686 -0.471033 0
0.37 -0.5 0
0.4 -0.5 0
0.369721 -0.471055 0
0.399756 -0.470957 0
0.4 -0.5 0
0.43 -0.5 0
0.399756 -0.470957 0
0.429805 -0.470822 0
0.43 -0.5 0
0.46 -0.5 0
0.429805 -0.470822 0
0.459835 -0.470712 0
0.46 -0.5 0
0.49 -0.5 0
0.459835 -0.470712 0
0.489873 -0.470554 0
0.49 -0.5 0
0.52 -0.5 0
0.489873 -0.470554 0
0.519906 -0.470379 0
0.52 -0.5 0
0.55 -0.5 0
0.519906 -0.470379 0
0.54993 -0.470248 0
0.55 -0.5 0
0.58 -0.5 0
0.54993 -0.470248 0
0.579948 -0.470155 0
0.58 -0.5 0
0.61 -0.5 0
0.579948 -0.470155 0
0.609962 -0.470091 0
0.61 -0.5 0
0.64 -0.5 0
0.609962 -0.470091 0
0.639972 -0.47005 0
0.64 -0.5 0
0.67 -0.5 0
0.639972 -0.47005 0
0.66998 -0.470026 0
0.67 -0.5 0
0.7 -0.5 0
0.66998 -0.470026 0
0.699986 -0.470013 0
0.7 -0.5 0
0.73 -0.5 0
0.699986 -0.470013 0
0.72999 -0.470006 0
0.73 -0.5 0
0.76 -0.5 0
0.72999 -0.470006 0
0.759994 -0.470003 0
0.76 -0.5 0
0.79 -0.5 0
0.759994 -0.470003 0
0.78998 -0.469916 0
0.79 -0.5 0
0.82 -0.5 0
0.78998 -0.469916 0
0.819956 -0.469877 0
0.82 -0.5 0
0.85 -0.5 0
0.819956 -0.469877 0
0.849929 -0.469833 0
0.85 -0.5 0
0.88 -0.5 0
0.849929 -0.469833 0
0.879924 -0.469805 0
0.88 -0.5 0
0.91 -0.5 0
0.879924 -0.469805 0
0.909913 -0.469792 0
0.91 -0.5 0
0.94 -0.5 0
0.909913 -0.469792 0
0.939922 -0.469775 0
0.94 -0.5 0
0.97 -0.5 0
0.939922 -0.469775 0
0.969956 -0.46974 0
0.97 -0.5 0
1 -0.5 0
0.969956 -0.46974 0
1 -0.469697 0
-0.638298 0.138298 0
-0.616915 0.16063 0
-0.659574 0.159574 0
-0.638233 0.18203 0
-0.617021 0.117021 0
-0.595665 0.139192 0
-0.638298 0.138298 0
-0.616915 0.16063 0
-0.617021 0.117021 0
-0.595745 0.095745 0
-0.595665 0.139192 0
-0.574431 0.117764 0
-0.595745 0.095745 0
-0.574468 0.074468 0
-0.574431 0.117764 0
-0.553204 0.096309 0
-0.553191 0.053191 0
-0.53184 0.075023 0
-0.574468 0.074468 0
-0.553204 0.096309 0
-0.553191 0.053191 0
-0.531915 0.031915 0
-0.53184 0.075023 0
-0.510492 0.053733 0
-0.531915 0.031915 0
-0.510638 0.010638 0
-0.510492 0.053733 0
-0.489127 0.032461 0
-0.510638 0.010638 0
-0.489362 -0.010638 0
-0.489127 0.032461 0
-0.467791 0.011178 0
-0.489362 -0.010638 0
-0.468085 -0.031915 0
-0.467791 0.011178 0
-0.446536 -0.010172 0
-0.446809 -0.053191 0
-0.42524 -0.031466 0
-0.468085 -0.031915 0
-0.446536 -0.010172 0
-0.425532 -0.074468 0
-0.404012 -0.052824 0
-0.446809 -0.053191 0
-0.42524 -0.031466 0
-0.425532 -0.074468 0
-0.404255 -0.095745 0
-0.404012 -0.052824 0
-0.382783 -0.074175 0
-0.404255 -0.095745 0
-0.382979 -0.117021 0
-0.382783 -0.074175 0
-0.361545 -0.095511 0
-0.382979 -0.117021 0
-0.361702 -0.138298 0
-0.361545 -0.095511 0
-0.340288 -0.116831 0
-0.361702 -0.138298 0
-0.340426 -0.159574 0
-0.340288 -0.116831 0
-0.319034 -0.138159 0
-0.340426 -0.159574 0
-0.319149 -0.180851 0
-0.319034 -0.138159 0
-0.297766 -0.159484 0
-0.319149 -0.180851 0
-0.297872 -0.202128 0
-0.297766 -0.159484 0
-0.276489 -0.180797 0
-0.297872 -0.202128 0
-0.276596 -0.223404 0
-0.276489 -0.180797 0
-0.255087 -0.202105 0
-0.255319 -0.244681 0
-0.233674 -0.223466 0
-0.276596 -0.223404 0
-0.255087 -0.202105 0
-0.234043 -0.265957 0
-0.212119 -0.244916 0
-0.255319 -0.244681 0
-0.233674 -0.223466 0
-0.234043 -0.265957 0
-0.212766 -0.287234 0
-0.212119 -0.244916 0
-0.190657 -0.266392 0
-0.191489 -0.308511 0
-0.169261 -0.287934 0
-0.212766 -0.287234 0
-0.190657 -0.266392 0
-0.170213 -0.329787 0
-0.147854 -0.309624 0
-0.191489 -0.308511 0
-0.169261 -0.287934 0
-0.170213 -0.329787 0
-0.148936 -0.351064 0
-0.147854 -0.309624 0
-0.126431 -0.331364 0
-0.12766 -0.37234 0
-0.105256 -0.353368 0
-0.148936 -0.351064 0
-0.126431 -0.331364 0
-0.12766 -0.37234 0
-0.106383 -0.393617 0
-0.105256 -0.353368 0
-0.083924 -0.375263 0
-0.106383 -0.393617 0
-0.085106 -0.414894 0
-0.083924 -0.375263 0
-0.062097 -0.396824 0
-0.085106 -0.414894 0
-0.06383 -0.43617 0
-0.062097 -0.396824 0
-0.040132 -0.418076 0
-0.06383 -0.43617 0
-0.042553 -0.457447 0
-0.040132 -0.418076 0
-0.019646 -0.439891 0
-0.042553 -0.457447 0
-0.021277 -0.478723 0
-0.019646 -0.439891 0
-0.002475 -0.461393 0
-0.021277 -0.478723 0
0 -0.5 0
-0.002475 -0.461393 0
0.009599 -0.478226 0
0 -0.5 0
0.03 -0.5 0
0.009599 -0.478226 0
0.029922 -0.474701 0
0.03 -0.5 0
[...]
POINT_DATA 7312
VECTORS momentum double
0.000672373 -0.000682998 0
0.0024869 -0.00287381 0
0.00976661 -0.000998948 0
0.0109783 0.00208544 0
-6.92733e-05 -0.000400475 0
7.04435e-05 -0.000402823 0
-1.09099e-05 -0.000906435 0
6.31379e-05 -0.000866872 0
-0.00019831 -0.000545399 0
-1.09099e-05 -0.000906435 0
7.40646e-05 -0.000583034 0
6.31379e-05 -0.000866872 0
-4.5578e-05 -0.000973323 0
-0.00019831 -0.000545399 0
-1.29877e-06 -0.00107781 0
7.40646e-05 -0.000583034 0
2.90263e-05 -0.00065704 0
-4.5578e-05 -0.000973323 0
-1.35986e-05 -0.00075457 0
-1.29877e-06 -0.00107781 0
3.99201e-05 -0.000965022 0
2.90263e-05 -0.00065704 0
-3.94672e-05 -0.00097932 0
-1.35986e-05 -0.00075457 0
0.000149453 -0.000697709 0
3.99201e-05 -0.000965022 0
4.35489e-06 -0.000649457 0
-3.94672e-05 -0.00097932 0
9.34033e-06 -0.00119973 0
0.000149453 -0.000697709 0
-4.88541e-05 -0.000594726 0
4.35489e-06 -0.000649457 0
-0.000486671 -0.000732246 0
9.34033e-06 -0.00119973 0
-0.000726366 -0.000926387 0
-4.88541e-05 -0.000594726 0
-0.000355625 -0.00125116 0
-0.000726366 -0.000926387 0
-5.44973e-05 -0.000429313 0
-4.88541e-05 -0.000594726 0
-0.000191494 -0.00131944 0
-0.000355625 -0.00125116 0
-0.000532828 -0.000496967 0
-5.44973e-05 -0.000429313 0
2.27452e-05 -0.000811452 0
-0.000191494 -0.00131944 0
-0.000237207 -0.000461224 0
-0.000532828 -0.000496967 0
-2.87286e-05 -0.000543432 0
2.27452e-05 -0.000811452 0
-0.00024794 -0.0008743 0
-0.000237207 -0.000461224 0
-6.19202e-05 -0.000457484 0
-0.00024794 -0.0008743 0
2.22787e-05 -0.000331205 0
-0.000237207 -0.000461224 0
-4.12463e-05 -0.000780762 0
-6.19202e-05 -0.000457484 0
-1.84998e-05 -0.000795188 0
2.22787e-05 -0.000331205 0
8.38396e-06 -0.000437589 0
-4.12463e-05 -0.000780762 0
2.97085e-06 -0.000415835 0
-1.84998e-05 -0.000795188 0
-2.34676e-05 -0.000805846 0
8.38396e-06 -0.000437589 0
-4.1008e-06 -0.000814329 0
2.97085e-06 -0.000415835 0
3.99874e-06 -0.000411915 0
-2.34676e-05 -0.000805846 0
1.13864e-06 -0.000402823 0
-4.1008e-06 -0.000814329 0
-2.05232e-05 -0.000847497 0
3.99874e-06 -0.000411915 0
-2.57136e-06 -0.000850583 0
1.13864e-06 -0.000402823 0
8.69915e-06 -0.000379598 0
-2.05232e-05 -0.000847497 0
1.8047e-06 -0.000374421 0
-2.57136e-06 -0.000850583 0
-3.37221e-05 -0.00065771 0
-2.3275e-05 -0.00169796 0
-3.54776e-05 -0.000657881 0
-2.20119e-05 -0.00169835 0
-2.76793e-05 -0.000658239 0
-2.05883e-05 -0.00169889 0
-3.37221e-05 -0.00065771 0
-2.3275e-05 -0.00169796 0
-2.10704e-05 -0.000657841 0
-1.34699e-05 -0.00169957 0
-2.76793e-05 -0.000658239 0
-2.05883e-05 -0.00169889 0
-1.31809e-05 -0.000656954 0
-5.82143e-06 -0.00170015 0
-2.10704e-05 -0.000657841 0
-1.34699e-05 -0.00169957 0
-4.47913e-06 -0.00065629 0
4.0471e-06 -0.00170117 0
-1.31809e-05 -0.000656954 0
-5.82143e-06 -0.00170015 0
5.32737e-06 -0.000654886 0
1.45113e-05 -0.00170226 0
-4.47913e-06 -0.00065629 0
4.0471e-06 -0.00170117 0
1.69362e-05 -0.000654164 0
2.59085e-05 -0.0017035 0
5.32737e-06 -0.000654886 0
1.45113e-05 -0.00170226 0
2.86381e-05 -0.000652613 0
3.81393e-05 -0.00170552 0
1.69362e-05 -0.000654164 0
2.59085e-05 -0.0017035 0
4.23017e-05 -0.000651382 0
4.93671e-05 -0.00170772 0
2.86381e-05 -0.000652613 0
3.81393e-05 -0.00170552 0
5.58491e-05 -0.000650608 0
6.15171e-05 -0.00171064 0
4.23017e-05 -0.000651382 0
4.93671e-05 -0.00170772 0
7.12087e-05 -0.000649392 0
7.27798e-05 -0.00171337 0
5.58491e-05 -0.000650608 0
6.15171e-05 -0.00171064 0
8.71712e-05 -0.000648662 0
7.96526e-05 -0.00171751 0
7.12087e-05 -0.000649392 0
7.27798e-05 -0.00171337 0
8.71712e-05 -0.000648662 0
9.91737e-05 -0.000649291 0
7.96526e-05 -0.00171751 0
8.62896e-05 -0.00172221 0
0.000109725 -0.00064964 0
8.91176e-05 -0.00172886 0
9.91737e-05 -0.000649291 0
8.62896e-05 -0.00172221 0
0.000114894 -0.000652348 0
8.98972e-05 -0.00173451 0
0.000109725 -0.00064964 0
8.91176e-05 -0.00172886 0
0.000111511 -0.000655042 0
9.35977e-05 -0.00173791 0
0.000114894 -0.000652348 0
8.98972e-05 -0.00173451 0
0.000108843 -0.000656264 0
9.48962e-05 -0.00173839 0
0.000111511 -0.000655042 0
9.35977e-05 -0.00173791 0
9.70092e-05 -0.000658324 0
9.15973e-05 -0.0017375 0
0.000108843 -0.000656264 0
9.48962e-05 -0.00173839 0
7.82253e-05 -0.000658955 0
8.42693e-05 -0.00173574 0
9.70092e-05 -0.000658324 0
9.15973e-05 -0.0017375 0
6.00057e-05 -0.000658035 0
7.17663e-05 -0.00173312 0
7.82253e-05 -0.000658955 0
8.42693e-05 -0.00173574 0
4.63642e-05 -0.000656237 0
5.49688e-05 -0.00173255 0
6.00057e-05 -0.000658035 0
7.17663e-05 -0.00173312 0
3.4295e-05 -0.000656302 0
3.77164e-05 -0.00173104 0
4.63642e-05 -0.000656237 0
5.49688e-05 -0.00173255 0
2.11706e-05 -0.000656092 0
2.55476e-05 -0.00173368 0
3.4295e-05 -0.000656302 0
3.77164e-05 -0.00173104 0
1.04188e-05 -0.000656235 0
9.71487e-06 -0.001734 0
2.11706e-05 -0.000656092 0
2.55476e-05 -0.00173368 0
5.24168e-06 -0.000657554 0
-1.96312e-06 -0.0017313 0
1.04188e-05 -0.000656235 0
9.71487e-06 -0.001734 0
-1.12073e-05 -0.000661095 0
-1.69442e-05 -0.0017268 0
5.24168e-06 -0.000657554 0
-1.96312e-06 -0.0017313 0
-2.76153e-05 -0.000665294 0
-2.27359e-05 -0.00172079 0
-1.12073e-05 -0.000661095 0
-1.69442e-05 -0.0017268 0
-4.66463e-05 -0.000664598 0
-3.24599e-05 -0.00171978 0
-2.76153e-05 -0.000665294 0
-2.27359e-05 -0.00172079 0
-5.30198e-05 -0.000662237 0
-3.58612e-05 -0.00172011 0
-4.66463e-05 -0.000664598 0
-3.24599e-05 -0.00171978 0
-6.74178e-05 -0.000658615 0
-4.83544e-05 -0.00172352 0
-5.30198e-05 -0.000662237 0
-3.58612e-05 -0.00172011 0
-6.52012e-05 -0.000653993 0
-4.67417e-05 -0.00172669 0
-6.74178e-05 -0.000658615 0
-4.83544e-05 -0.00172352 0
-7.65116e-05 -0.000649444 0
-6.37822e-05 -0.00173155 0
-6.52012e-05 -0.000653993 0
-4.67417e-05 -0.00172669 0
-6.3676e-05 -0.000647805 0
-5.88191e-05 -0.00172982 0
-7.65116e-05 -0.000649444 0
-6.37822e-05 -0.00173155 0
-8.15341e-05 -0.000647349 0
-7.81238e-05 -0.00173023 0
-6.3676e-05 -0.000647805 0
-5.88191e-05 -0.00172982 0
-6.5028e-05 -0.000646471 0
-6.71263e-05 -0.00171926 0
-8.15341e-05 -0.000647349 0
-7.81238e-05 -0.00173023 0
-0.00010663 -0.00064686 0
-0.000118019 -0.00170591 0
-6.5028e-05 -0.000646471 0
-6.71263e-05 -0.00171926 0
-0.000127142 -0.000648007 0
-0.000139704 -0.00166921 0
-0.00010663 -0.00064686 0
-0.000118019 -0.00170591 0
-0.000270498 -0.000650186 0
-0.000272387 -0.00162135 0
-0.000127142 -0.000648007 0
-0.000139704 -0.00166921 0
-0.000390667 -0.000651493 0
-0.000384908 -0.0015284 0
-0.000270498 -0.000650186 0
-0.000272387 -0.00162135 0
-0.000390667 -0.000651493 0
-0.000736282 -0.000652982 0
-0.000384908 -0.0015284 0
-0.000696165 -0.00141249 0
-0.00108273 -0.000644417 0
-0.00100388 -0.00121715 0
-0.000736282 -0.000652982 0
-0.000696165 -0.00141249 0
-0.00182331 -0.000633118 0
-0.00167933 -0.000970426 0
-0.00108273 -0.000644417 0
-0.00100388 -0.00121715 0
-0.00263146 -0.000609786 0
-0.00244919 -0.000546211 0
-0.00182331 -0.000633118 0
-0.00167933 -0.000970426 0
-0.004175 -0.000585915 0
-0.00391572 -3.59603e-05 0
-0.00263146 -0.000609786 0
-0.00244919 -0.000546211 0
-0.005978 -0.000544038 0
-0.00569368 0.000797082 0
-0.004175 -0.000585915 0
-0.00391572 -3.59603e-05 0
-0.005978 -0.000544038 0
-0.00915811 -0.000502824 0
-0.00569368 0.000797082 0
-0.00877465 0.00178443 0
-0.00915811 -0.000502824 0
-0.0130295 -0.000438086 0
-0.00877465 0.00178443 0
-0.0126634 0.00339275 0
-0.0194628 -0.000390787 0
-0.0189267 0.00521493 0
-0.0130295 -0.000438086 0
-0.0126634 0.00339275 0
-0.027393 -0.000290404 0
-0.0269384 0.00818806 0
-0.0194628 -0.000390787 0
-0.0189267 0.00521493 0
-0.039858 -0.000239579 0
-0.0390167 0.0113531 0
-0.027393 -0.000290404 0
-0.0269384 0.00818806 0
-0.0548887 -5.51853e-05 0
-0.054362 0.0163453 0
-0.039858 -0.000239579 0
-0.0390167 0.0113531 0
-0.0774661 -4.06505e-05 0
-0.0761334 0.0211977 0
-0.0548887 -5.51853e-05 0
-0.054362 0.0163453 0
-0.103824 0.000306713 0
-0.103472 0.0297403 0
-0.0774661 -4.06505e-05 0
-0.0761334 0.0211977 0
-0.14334 0.000219081 0
-0.140271 0.0367384 0
-0.103824 0.000306713 0
-0.103472 0.0297403 0
-0.186669 0.00126778 0
-0.186635 0.0517737 0
-0.14334 0.000219081 0
-0.140271 0.0367384 0
-0.252897 0.00161595 0
-0.243949 0.0533657 0
-0.186669 0.00126778 0
-0.186635 0.0517737 0
-0.287776 0.000111255 0
-0.308446 0.0340614 0
-0.252897 0.00161595 0
-0.243949 0.0533657 0
-0.0877559 -0.00416089 0
-0.0714257 -0.0334667 0
-0.149524 -0.00219705 0
-0.126978 -0.0804389 0
-1.16807e-06 -0.000389836 0
-2.96897e-05 -0.000845573 0
8.69915e-06 -0.000379598 0
-2.05232e-05 -0.000847497 0
-1.16807e-06 -0.000389836 0
-1.79293e-05 -0.000397506 0
-2.96897e-05 -0.000845573 0
-3.21324e-05 -0.000844827 0
-3.05743e-05 -0.000401041 0
-4.04054e-05 -0.000845024 0
-1.79293e-05 -0.000397506 0
-3.21324e-05 -0.000844827 0
-3.05743e-05 -0.000401041 0
-3.60047e-05 -0.00040487 0
-4.04054e-05 -0.000845024 0
-4.86228e-05 -0.000844564 0
-3.60047e-05 -0.00040487 0
-4.23683e-05 -0.000407473 0
-4.86228e-05 -0.000844564 0
-5.44962e-05 -0.000846347 0
-4.23683e-05 -0.000407473 0
-4.9405e-05 -0.000409715 0
-5.44962e-05 -0.000846347 0
-5.89067e-05 -0.000848957 0
-4.9405e-05 -0.000409715 0
-5.48635e-05 -0.000410031 0
-5.89067e-05 -0.000848957 0
-6.64296e-05 -0.000852941 0
-5.48635e-05 -0.000410031 0
-6.1128e-05 -0.000412508 0
-6.64296e-05 -0.000852941 0
-7.53407e-05 -0.000855915 0
-6.1128e-05 -0.000412508 0
-6.98509e-05 -0.000414645 0
-7.53407e-05 -0.000855915 0
-8.11611e-05 -0.000858328 0
-6.98509e-05 -0.000414645 0
-7.86158e-05 -0.000416653 0
-8.11611e-05 -0.000858328 0
-8.65656e-05 -0.000860474 0
-7.86158e-05 -0.000416653 0
-8.53969e-05 -0.000417729 0
-8.65656e-05 -0.000860474 0
-9.05755e-05 -0.000861908 0
-8.53969e-05 -0.000417729 0
-9.07781e-05 -0.000418869 0
-9.05755e-05 -0.000861908 0
-9.37428e-05 -0.000862939 0
-9.07781e-05 -0.000418869 0
-9.35212e-05 -0.00041918 0
-9.37428e-05 -0.000862939 0
-9.42333e-05 -0.000863621 0
-9.35212e-05 -0.00041918 0
-9.46537e-05 -0.000419512 0
-9.42333e-05 -0.000863621 0
-9.42341e-05 -0.000864355 0
-9.46537e-05 -0.000419512 0
-9.24241e-05 -0.000419622 0
-9.42341e-05 -0.000864355 0
-9.21801e-05 -0.000865506 0
-9.24241e-05 -0.000419622 0
-8.73629e-05 -0.000419831 0
-9.21801e-05 -0.000865506 0
-9.06064e-05 -0.000867425 0
-8.73629e-05 -0.000419831 0
-8.20862e-05 -0.000420546 0
-9.06064e-05 -0.000867425 0
-8.72464e-05 -0.000868906 0
-8.20862e-05 -0.000420546 0
-7.78354e-05 -0.000421443 0
-8.72464e-05 -0.000868906 0
-8.24706e-05 -0.000871119 0
-7.78354e-05 -0.000421443 0
-7.26766e-05 -0.000422395 0
-8.24706e-05 -0.000871119 0
-7.65524e-05 -0.00087352 0
-7.26766e-05 -0.000422395 0
-6.94131e-05 -0.000423164 0
-7.65524e-05 -0.00087352 0
-7.17736e-05 -0.000875928 0
-6.94131e-05 -0.000423164 0
-6.44002e-05 -0.000423478 0
-7.17736e-05 -0.000875928 0
-6.62988e-05 -0.000878491 0
-6.44002e-05 -0.000423478 0
-5.99977e-05 -0.000423973 0
-6.62988e-05 -0.000878491 0
-6.18597e-05 -0.000880517 0
-5.99977e-05 -0.000423973 0
-5.37454e-05 -0.000424044 0
-6.18597e-05 -0.000880517 0
-5.57446e-05 -0.000882131 0
-5.37454e-05 -0.000424044 0
-4.90134e-05 -0.000424036 0
-5.57446e-05 -0.000882131 0
-5.17235e-05 -0.000882913 0
0.127141 -0.122972 0
0.148378 -0.079461 0
0.191255 -0.18751 0
0.220362 -0.0842403 0
0.091805 -0.0914366 0
0.106625 -0.0653606 0
0.127141 -0.122972 0
0.148378 -0.079461 0
0.091805 -0.0914366 0
0.0710734 -0.0706684 0
0.106625 -0.0653606 0
0.0804134 -0.0550281 0
0.0710734 -0.0706684 0
0.0564495 -0.0565354 0
0.0804134 -0.0550281 0
0.0626046 -0.045794 0
0.0457427 -0.0458861 0
0.0497312 -0.038579 0
0.0564495 -0.0565354 0
0.0626046 -0.045794 0
0.0457427 -0.0458861 0
0.0372457 -0.0375433 0
0.0497312 -0.038579 0
0.0399016 -0.0322316 0
0.0372457 -0.0375433 0
0.0303443 -0.0306785 0
0.0399016 -0.0322316 0
0.0320185 -0.0269055 0
0.0303443 -0.0306785 0
0.0245415 -0.0249323 0
0.0320185 -0.0269055 0
0.0255648 -0.0221619 0
0.0245415 -0.0249323 0
0.0196791 -0.0200907 0
0.0255648 -0.0221619 0
0.0202043 -0.0181078 0
0.0155647 -0.0160002 0
0.0157562 -0.0145538 0
0.0196791 -0.0200907 0
0.0202043 -0.0181078 0
0.0121742 -0.012626 0
0.0121152 -0.0115972 0
0.0155647 -0.0160002 0
0.0157562 -0.0145538 0
0.0121742 -0.012626 0
0.00937821 -0.00984279 0
0.0121152 -0.0115972 0
0.00915538 -0.00911147 0
0.00937821 -0.00984279 0
0.00716894 -0.00764135 0
0.00915538 -0.00911147 0
0.00682753 -0.00713028 0
0.00716894 -0.00764135 0
0.00541192 -0.00588755 0
0.00682753 -0.00713028 0
0.00499428 -0.00553738 0
0.00541192 -0.00588755 0
0.0040911 -0.00456671 0
0.00499428 -0.00553738 0
0.00361639 -0.00432924 0
0.0040911 -0.00456671 0
0.00307354 -0.00354822 0
0.00361639 -0.00432924 0
0.00256549 -0.00339264 0
0.00307354 -0.00354822 0
0.00235111 -0.00282204 0
0.00256549 -0.00339264 0
0.00181837 -0.00271746 0
0.00235111 -0.00282204 0
0.00179953 -0.00226992 0
0.00181837 -0.00271746 0
0.00125485 -0.00221095 0
0.0014355 -0.00189325 0
0.000882249 -0.00187117 0
0.00179953 -0.00226992 0
0.00125485 -0.00221095 0
0.00115239 -0.00160151 0
0.000570922 -0.00160523 0
0.0014355 -0.00189325 0
0.000882249 -0.00187117 0
0.00115239 -0.00160151 0
0.000984194 -0.00143514 0
0.000570922 -0.00160523 0
0.000396727 -0.00143102 0
0.000825115 -0.00128967 0
0.00023953 -0.00127649 0
0.000984194 -0.00143514 0
0.000396727 -0.00143102 0
0.000747847 -0.00124061 0
0.000219226 -0.00119983 0
0.000825115 -0.00128967 0
0.00023953 -0.00127649 0
0.000747847 -0.00124061 0
0.000635919 -0.00112922 0
0.000219226 -0.00119983 0
0.000136718 -0.00114438 0
0.000657554 -0.00113566 0
0.000148156 -0.00116535 0
0.000635919 -0.00112922 0
0.000136718 -0.00114438 0
0.000657554 -0.00113566 0
0.00061484 -0.00109271 0
0.000148156 -0.00116535 0
6.86606e-05 -0.00111537 0
0.00061484 -0.00109271 0
0.000670862 -0.00116602 0
6.86606e-05 -0.00111537 0
0.000184631 -0.00117313 0
0.000670862 -0.00116602 0
0.000556825 -0.00105373 0
0.000184631 -0.00117313 0
0.000126316 -0.00101656 0
0.000556825 -0.00105373 0
0.000430033 -0.000897221 0
0.000126316 -0.00101656 0
0.0003761 -0.00120243 0
0.000430033 -0.000897221 0
0.000316438 -0.00063109 0
0.0003761 -0.00120243 0
0.000178156 -0.000610278 0
0.000316438 -0.00063109 0
0.000162915 -0.000470319 0
0.000178156 -0.000610278 0
9.40176e-05 -0.000937366 0
0.000162915 -0.000470319 0
0.000379604 -0.000283795 0
9.40176e-05 -0.000937366 0
0.000259151 -0.000758247 0
0.000379604 -0.000283795 0
0.000291646 -0.000370483 0
0.000259151 -0.000758247 0
-0.00013407 -0.000847078 0
0.000291646 -0.000370483 0
0.000199486 -0.000447305 0
-0.00013407 -0.000847078 0
0.000123431 -0.000793473 0
0.000199486 -0.000447305 0
-6.92733e-05 -0.000400475 0
0.000123431 -0.000793473 0
-1.09099e-05 -0.000906435 0
-5.57446e-05 -0.000882131 0
-5.17235e-05 -0.000882913 0
-5.78298e-05 -0.000512486 0
-5.44646e-05 -0.000515821 0
-5.78298e-05 -0.000512486 0
-5.44646e-05 -0.000515821 0
-6.25841e-05 -0.000866197 0
-5.98827e-05 -0.000868842 0
-6.25841e-05 -0.000866197 0
-5.98827e-05 -0.000868842 0
-6.91067e-05 -0.000595677 0
-6.57766e-05 -0.000599599 0
-6.91067e-05 -0.000595677 0
-6.57766e-05 -0.000599599 0
-7.59713e-05 -0.00086777 0
-7.47154e-05 -0.000872679 0
-7.59713e-05 -0.00086777 0
-7.47154e-05 -0.000872679 0
-8.52985e-05 -0.000676223 0
-8.31687e-05 -0.000681549 0
-8.52985e-05 -0.000676223 0
-8.31687e-05 -0.000681549 0
-9.4201e-05 -0.000888856 0
-9.33617e-05 -0.00089544 0
-0.000106028 -0.000763635 0
-9.4201e-05 -0.000888856 0
-0.000104439 -0.000771079 0
-9.33617e-05 -0.00089544 0
-0.000106028 -0.000763635 0
-0.000104439 -0.000771079 0
-0.000118685 -0.00093502 0
-0.000117317 -0.000943605 0
-0.000118685 -0.00093502 0
-0.000117317 -0.000943605 0
-0.000134259 -0.000867164 0
-0.000132436 -0.000877495 0
-0.000134259 -0.000867164 0
-0.000132436 -0.000877495 0
-0.000152938 -0.00100929 0
-0.000151586 -0.0010212 0
-0.000152938 -0.00100929 0
-0.000151586 -0.0010212 0
-0.000175478 -0.000988892 0
-0.000174945 -0.0010035 0
-0.000175478 -0.000988892 0
-0.000174945 -0.0010035 0
-0.000203797 -0.00110324 0
-0.000207256 -0.00112067 0
-0.000203797 -0.00110324 0
-0.000207256 -0.00112067 0
-0.000237076 -0.00111479 0
-0.000246663 -0.00113523 0
-0.000237076 -0.00111479 0
-0.000246663 -0.00113523 0
-0.000276411 -0.00119115 0
-0.000297272 -0.00121459 0
-0.000276411 -0.00119115 0
-0.000297272 -0.00121459 0
-0.000317879 -0.00121459 0
-0.000354268 -0.001239 0
-0.000317879 -0.00121459 0
-0.000354268 -0.001239 0
-0.000357967 -0.00123534 0
-0.000413741 -0.00125819 0
-0.000357967 -0.00123534 0
-0.000413741 -0.00125819 0
-0.000387488 -0.00125427 0
-0.000462594 -0.00127028 0
-0.000387488 -0.00125427 0
-0.000462594 -0.00127028 0
-0.000398449 -0.00120812 0
-0.000486217 -0.00121258 0
-0.000398449 -0.00120812 0
-0.000486217 -0.00121258 0
-0.0003846 -0.00123174 0
-0.000471187 -0.00122123 0
-0.0003846 -0.00123174 0
-0.000471187 -0.00122123 0
-0.000347251 -0.00113287 0
-0.000419065 -0.00111149 0
-0.000347251 -0.00113287 0
-0.000419065 -0.00111149 0
-0.00029533 -0.00119846 0
-0.000346489 -0.00117038 0
-0.00029533 -0.00119846 0
-0.000346489 -0.00117038 0
-0.0002368 -0.00105962 0
-0.000268029 -0.0010315 0
-0.0002368 -0.00105962 0
-0.000268029 -0.0010315 0
-0.000184302 -0.00119623 0
-0.000199539 -0.00116977 0
-0.000184302 -0.00119623 0
-0.000199539 -0.00116977 0
-0.000134088 -0.00100286 0
-0.00013895 -0.000982833 0
-0.000134088 -0.00100286 0
-0.00013895 -0.000982833 0
-0.000102897 -0.00123466 0
-0.000103982 -0.00121709 0
-0.000102897 -0.00123466 0
-0.000103982 -0.00121709 0
-6.89688e-05 -0.000956716 0
-6.64441e-05 -0.000942862 0
-6.89688e-05 -0.000956716 0
-6.64441e-05 -0.000942862 0
-5.0208e-05 -0.00133045 0
-4.89648e-05 -0.00131936 0
-5.0208e-05 -0.00133045 0
-4.89648e-05 -0.00131936 0
-2.64146e-05 -0.000909671 0
-2.33375e-05 -0.000902843 0
-2.64146e-05 -0.000909671 0
-2.33375e-05 -0.000902843 0
-2.47575e-05 -0.00148339 0
-2.32857e-05 -0.00148096 0
-2.47575e-05 -0.00148339 0
-2.32857e-05 -0.00148096 0
-2.00421e-05 -0.000826562 0
-1.94638e-05 -0.000824574 0
-2.00421e-05 -0.000826562 0
-1.94638e-05 -0.000824574 0
-2.3275e-05 -0.00169796 0
-2.20119e-05 -0.00169835 0
0.350056 -0.10509 0
0.220362 -0.0842403 0
0.254649 0.0428462 0
0.197633 0.00102971 0
0.148378 -0.079461 0
0.143796 -0.0229424 0
0.220362 -0.0842403 0
0.197633 0.00102971 0
0.106625 -0.0653606 0
0.108154 -0.0314939 0
0.148378 -0.079461 0
0.143796 -0.0229424 0
0.106625 -0.0653606 0
0.0804134 -0.0550281 0
0.108154 -0.0314939 0
0.0823784 -0.0324948 0
0.0804134 -0.0550281 0
0.0626046 -0.045794 0
0.0823784 -0.0324948 0
0.0649977 -0.0309173 0
0.0497312 -0.038579 0
0.0514579 -0.0278913 0
0.0626046 -0.045794 0
0.0649977 -0.0309173 0
0.0497312 -0.038579 0
0.0399016 -0.0322316 0
0.0514579 -0.0278913 0
0.041357 -0.0246289 0
0.0399016 -0.0322316 0
0.0320185 -0.0269055 0
0.041357 -0.0246289 0
0.0329914 -0.0211557 0
0.0320185 -0.0269055 0
0.0255648 -0.0221619 0
0.0329914 -0.0211557 0
0.026315 -0.0178874 0
0.0255648 -0.0221619 0
0.0202043 -0.0181078 0
0.026315 -0.0178874 0
0.0206916 -0.0147878 0
0.0157562 -0.0145538 0
0.0161034 -0.0120268 0
0.0202043 -0.0181078 0
0.0206916 -0.0147878 0
0.0121152 -0.0115972 0
0.0123164 -0.00962387 0
0.0157562 -0.0145538 0
0.0161034 -0.0120268 0
0.0121152 -0.0115972 0
0.00915538 -0.00911147 0
0.0123164 -0.00962387 0
0.00927314 -0.00757296 0
0.00915538 -0.00911147 0
0.00682753 -0.00713028 0
0.00927314 -0.00757296 0
0.00686572 -0.00589753 0
0.00682753 -0.00713028 0
0.00499428 -0.00553738 0
0.00686572 -0.00589753 0
0.00499555 -0.00453492 0
0.00499428 -0.00553738 0
0.00361639 -0.00432924 0
0.00499555 -0.00453492 0
0.003588 -0.00348374 0
0.00361639 -0.00432924 0
0.00256549 -0.00339264 0
0.003588 -0.00348374 0
0.00252409 -0.00267109 0
0.00256549 -0.00339264 0
0.00181837 -0.00271746 0
0.00252409 -0.00267109 0
0.00175543 -0.00207871 0
0.00181837 -0.00271746 0
0.00125485 -0.00221095 0
0.00175543 -0.00207871 0
0.00118611 -0.00163349 0
0.000882249 -0.00187117 0
0.000814625 -0.00130408 0
0.00125485 -0.00221095 0
0.00118611 -0.00163349 0
0.000570922 -0.00160523 0
0.000544077 -0.00107231 0
0.000882249 -0.00187117 0
0.000814625 -0.00130408 0
0.000570922 -0.00160523 0
0.000396727 -0.00143102 0
0.000544077 -0.00107231 0
0.000385936 -0.000915118 0
0.00023953 -0.00127649 0
0.000233411 -0.000841498 0
0.000396727 -0.00143102 0
0.000385936 -0.000915118 0
0.000219226 -0.00119983 0