# vtk DataFile Version 3.0
#This file was generated by the deal.II library on 2016/12/20 at 10:56:34
ASCII
DATASET UNSTRUCTURED_GRID

POINTS 7120 double
-0.970149 0.5 0
-0.964976 0.485465 0
-0.940299 0.5 0
-0.945882 0.477585 0
-0.910448 0.5 0
-0.940299 0.5 0
-0.919731 0.466897 0
-0.945882 0.477585 0
0.12 -0.5 0
0.15 -0.5 0
0.119014 -0.4708 0
0.15 -0.471429 0
0.11755 -0.441479 0
0.119014 -0.4708 0
0.15 -0.442857 0
0.15 -0.471429 0
0.117242 -0.412206 0
0.11755 -0.441479 0
0.15 -0.414286 0
0.15 -0.442857 0
0.118129 -0.383064 0
0.117242 -0.412206 0
0.15 -0.385714 0
0.15 -0.414286 0
0.12021 -0.354337 0
0.118129 -0.383064 0
0.15 -0.357143 0
0.15 -0.385714 0
0.121793 -0.32584 0
0.12021 -0.354337 0
0.15 -0.328571 0
0.15 -0.357143 0
0.122717 -0.296869 0
0.121793 -0.32584 0
0.15 -0.3 0
0.15 -0.328571 0
0.123759 -0.266752 0
0.122717 -0.296869 0
0.153091 -0.267708 0
0.15 -0.3 0
0.18456 -0.26795 0
0.153091 -0.267708 0
0.183333 -0.3 0
0.15 -0.3 0
0.216606 -0.268111 0
0.18456 -0.26795 0
0.216667 -0.3 0
0.183333 -0.3 0
0.24835 -0.26841 0
0.216606 -0.268111 0
0.25 -0.3 0
0.216667 -0.3 0
0.278782 -0.268564 0
0.24835 -0.26841 0
0.279437 -0.298917 0
0.25 -0.3 0
0.279638 -0.328111 0
0.279437 -0.298917 0
0.25 -0.328571 0
0.25 -0.3 0
0.27971 -0.356801 0
0.279638 -0.328111 0
0.25 -0.357143 0
0.25 -0.328571 0
0.279677 -0.385395 0
0.27971 -0.356801 0
0.25 -0.385714 0
0.25 -0.357143 0
0.279641 -0.413938 0
0.279677 -0.385395 0
0.25 -0.414286 0
0.25 -0.385714 0
0.279666 -0.442534 0
0.279641 -0.413938 0
0.25 -0.442857 0
0.25 -0.414286 0
0.279811 -0.471266 0
0.279666 -0.442534 0
0.25 -0.471429 0
0.25 -0.442857 0
0.28 -0.5 0
0.279811 -0.471266 0
0.25 -0.5 0
0.25 -0.471429 0
0.970149 0.5 0
0.970096 0.46978 0
1 0.5 0
1 0.469697 0
0.940299 0.5 0
0.940231 0.46984 0
0.970149 0.5 0
0.970096 0.46978 0
0.910448 0.5 0
0.910371 0.469856 0
0.940299 0.5 0
0.940231 0.46984 0
0.880597 0.5 0
0.880527 0.469909 0
0.910448 0.5 0
0.910371 0.469856 0
0.850746 0.5 0
0.850684 0.469926 0
0.880597 0.5 0
0.880527 0.469909 0
0.820896 0.5 0
0.820842 0.469978 0
0.850746 0.5 0
0.850684 0.469926 0
0.791045 0.5 0
0.791001 0.470016 0
0.820896 0.5 0
0.820842 0.469978 0
0.761194 0.5 0
0.761159 0.470055 0
0.791045 0.5 0
0.791001 0.470016 0
0.731343 0.5 0
0.731316 0.470091 0
0.761194 0.5 0
0.761159 0.470055 0
0.701493 0.5 0
0.701472 0.470118 0
0.731343 0.5 0
0.731316 0.470091 0
0.671642 0.5 0
0.671627 0.470134 0
0.701493 0.5 0
0.701472 0.470118 0
0.641791 0.5 0
0.64178 0.470142 0
0.671642 0.5 0
0.671627 0.470134 0
0.641791 0.5 0
0.61194 0.5 0
0.64178 0.470142 0
0.611934 0.470065 0
0.58209 0.5 0
0.582089 0.470002 0
0.61194 0.5 0
0.611934 0.470065 0
0.552239 0.5 0
0.552248 0.469853 0
0.58209 0.5 0
0.582089 0.470002 0
0.522388 0.5 0
0.522413 0.469718 0
0.552239 0.5 0
0.552248 0.469853 0
0.492537 0.5 0
0.492577 0.469656 0
0.522388 0.5 0
0.522413 0.469718 0
0.462687 0.5 0
0.462743 0.469571 0
0.492537 0.5 0
0.492577 0.469656 0
0.432836 0.5 0
0.432895 0.46963 0
0.462687 0.5 0
0.462743 0.469571 0
0.402985 0.5 0
0.403046 0.469669 0
0.432836 0.5 0
0.432895 0.46963 0
0.373134 0.5 0
0.373191 0.469745 0
0.402985 0.5 0
0.403046 0.469669 0
0.343284 0.5 0
0.343335 0.469723 0
0.373134 0.5 0
0.373191 0.469745 0
0.313433 0.5 0
0.313478 0.469741 0
0.343284 0.5 0
0.343335 0.469723 0
0.283582 0.5 0
0.283622 0.469783 0
0.313433 0.5 0
0.313478 0.469741 0
0.253731 0.5 0
0.253768 0.469742 0
0.283582 0.5 0
0.283622 0.469783 0
0.223881 0.5 0
0.223918 0.469737 0
0.253731 0.5 0
0.253768 0.469742 0
0.19403 0.5 0
0.194064 0.46981 0
0.223881 0.5 0
0.223918 0.469737 0
0.164179 0.5 0
0.16421 0.469881 0
0.19403 0.5 0
0.194064 0.46981 0
0.134328 0.5 0
0.134355 0.46994 0
0.164179 0.5 0
0.16421 0.469881 0
0.104478 0.5 0
0.1045 0.469997 0
0.134328 0.5 0
0.134355 0.46994 0
0.074627 0.5 0
0.074645 0.470051 0
0.104478 0.5 0
0.1045 0.469997 0
0.044776 0.5 0
0.04479 0.470093 0
0.074627 0.5 0
0.074645 0.470051 0
0.014925 0.5 0
0.014935 0.47012 0
0.044776 0.5 0
0.04479 0.470093 0
-0.014925 0.5 0
-0.014918 0.470135 0
0.014925 0.5 0
0.014935 0.47012 0
-0.044776 0.5 0
-0.044771 0.470143 0
-0.014925 0.5 0
-0.014918 0.470135 0
-0.074627 0.5 0
-0.074623 0.470146 0
-0.044776 0.5 0
-0.044771 0.470143 0
-0.104478 0.5 0
-0.104496 0.469979 0
-0.074627 0.5 0
-0.074623 0.470146 0
-0.134328 0.5 0
-0.134359 0.469935 0
-0.104478 0.5 0
-0.104496 0.469979 0
-0.164179 0.5 0
-0.164225 0.469839 0
-0.134328 0.5 0
-0.134359 0.469935 0
-0.164179 0.5 0
-0.19403 0.5 0
-0.164225 0.469839 0
-0.194083 0.469797 0
-0.223881 0.5 0
-0.22394 0.469753 0
-0.19403 0.5 0
-0.194083 0.469797 0
-0.253731 0.5 0
-0.253798 0.469819 0
-0.223881 0.5 0
-0.22394 0.469753 0
-0.283582 0.5 0
-0.283647 0.470019 0
-0.253731 0.5 0
-0.253798 0.469819 0
-0.313433 0.5 0
-0.313491 0.470151 0
-0.283582 0.5 0
-0.283647 0.470019 0
-0.343284 0.5 0
-0.343348 0.470381 0
-0.313433 0.5 0
-0.313491 0.470151 0
-0.343284 0.5 0
-0.373134 0.5 0
-0.343348 0.470381 0
-0.373195 0.470395 0
-0.373134 0.5 0
-0.402985 0.5 0
-0.373195 0.470395 0
-0.403049 0.470404 0
-0.432836 0.5 0
-0.432937 0.470297 0
-0.402985 0.5 0
-0.403049 0.470404 0
-0.462687 0.5 0
-0.462848 0.469995 0
-0.432836 0.5 0
-0.432937 0.470297 0
-0.492537 0.5 0
-0.492807 0.469765 0
-0.462687 0.5 0
-0.462848 0.469995 0
-0.522388 0.5 0
-0.52276 0.46958 0
-0.492537 0.5 0
-0.492807 0.469765 0
-0.552239 0.5 0
-0.55273 0.469652 0
-0.522388 0.5 0
-0.52276 0.46958 0
-0.58209 0.5 0
-0.582662 0.469731 0
-0.552239 0.5 0
-0.55273 0.469652 0
-0.61194 0.5 0
-0.612594 0.469999 0
-0.58209 0.5 0
-0.582662 0.469731 0
-0.641791 0.5 0
-0.642647 0.470419 0
-0.61194 0.5 0
-0.612594 0.469999 0
-0.671642 0.5 0
-0.672638 0.470543 0
-0.641791 0.5 0
-0.642647 0.470419 0
-0.701493 0.5 0
-0.702968 0.4698 0
-0.671642 0.5 0
-0.672638 0.470543 0
-0.701493 0.5 0
-0.731343 0.5 0
-0.702968 0.4698 0
-0.733232 0.468149 0
-0.850746 0.5 0
-0.850723 0.467038 0
-0.820896 0.5 0
-0.822797 0.47207 0
0.31 -0.5 0
0.309694 -0.471123 0
0.28 -0.5 0
0.279811 -0.471266 0
0.31 -0.5 0
0.34 -0.5 0
0.309694 -0.471123 0
0.339686 -0.471033 0
0.37 -0.5 0
0.369721 -0.471055 0
0.34 -0.5 0
0.339686 -0.471033 0
0.37 -0.5 0
0.4 -0.5 0
0.369721 -0.471055 0
0.399756 -0.470957 0
0.4 -0.5 0
0.43 -0.5 0
0.399756 -0.470957 0
0.429805 -0.470822 0
0.43 -0.5 0
0.46 -0.5 0
0.429805 -0.470822 0
0.459835 -0.470712 0
0.46 -0.5 0
0.49 -0.5 0
0.459835 -0.470712 0
0.489873 -0.470554 0
0.49 -0.5 0
0.52 -0.5 0
0.489873 -0.470554 0
0.519906 -0.470379 0
0.52 -0.5 0
0.55 -0.5 0
0.519906 -0.470379 0
0.54993 -0.470248 0
0.55 -0.5 0
0.58 -0.5 0
0.54993 -0.470248 0
0.579948 -0.470155 0
0.58 -0.5 0
0.61 -0.5 0
0.579948 -0.470155 0
0.609962 -0.470091 0
0.61 -0.5 0
0.64 -0.5 0
0.609962 -0.470091 0
0.639972 -0.47005 0
0.64 -0.5 0
0.67 -0.5 0
0.639972 -0.47005 0
0.66998 -0.470026 0
0.67 -0.5 0
0.7 -0.5 0
0.66998 -0.470026 0
0.699986 -0.470013 0
0.7 -0.5 0
0.73 -0.5 0
0.699986 -0.470013 0
0.72999 -0.470006 0
0.73 -0.5 0
0.76 -0.5 0
0.72999 -0.470006 0
0.759994 -0.470003 0
0.76 -0.5 0
0.79 -0.5 0
0.759994 -0.470003 0
0.78998 -0.469916 0
0.79 -0.5 0
0.82 -0.5 0
0.78998 -0.469916 0
0.819956 -0.469877 0
0.82 -0.5 0
0.85 -0.5 0
0.819956 -0.469877 0
0.849929 -0.469833 0
0.85 -0.5 0
0.88 -0.5 0
0.849929 -0.469833 0
0.879924 -0.469805 0
0.88 -0.5 0
0.91 -0.5 0
0.879924 -0.469805 0
0.909913 -0.469792 0
0.91 -0.5 0
0.94 -0.5 0
0.909913 -0.469792 0
0.939922 -0.469775 0
0.94 -0.5 0
0.97 -0.5 0
0.939922 -0.469775 0
0.969956 -0.46974 0
0.97 -0.5 0
1 -0.5 0
0.969956 -0.46974 0
1 -0.469697 0
-0.765957 0.265957 0
-0.744681 0.244681 0
-0.745195 0.286345 0
-0.723868 0.265704 0
-0.744681 0.244681 0
-0.723404 0.223404 0
-0.723868 0.265704 0
-0.702394 0.245107 0
-0.702128 0.202128 0
-0.680976 0.2243 0
-0.723404 0.223404 0
-0.702394 0.245107 0
-0.702128 0.202128 0
-0.680851 0.180851 0
-0.680976 0.2243 0
-0.659597 0.203254 0
-0.680851 0.180851 0
-0.659574 0.159574 0
-0.659597 0.203254 0
-0.638233 0.18203 0
-0.638298 0.138298 0
-0.616915 0.16063 0
-0.659574 0.159574 0
-0.638233 0.18203 0
-0.617021 0.117021 0
-0.595665 0.139192 0
-0.638298 0.138298 0
-0.616915 0.16063 0
-0.617021 0.117021 0
-0.595745 0.095745 0
-0.595665 0.139192 0
-0.574431 0.117764 0
-0.595745 0.095745 0
-0.574468 0.074468 0
-0.574431 0.117764 0
-0.553204 0.096309 0
-0.553191 0.053191 0
-0.53184 0.075023 0
-0.574468 0.074468 0
-0.553204 0.096309 0
-0.553191 0.053191 0
-0.531915 0.031915 0
-0.53184 0.075023 0
-0.510492 0.053733 0
-0.531915 0.031915 0
-0.510638 0.010638 0
-0.510492 0.053733 0
-0.489127 0.032461 0
-0.510638 0.010638 0
-0.489362 -0.010638 0
-0.489127 0.032461 0
-0.467791 0.011178 0
-0.489362 -0.010638 0
-0.468085 -0.031915 0
-0.467791 0.011178 0
-0.446536 -0.010172 0
-0.446809 -0.053191 0
-0.42524 -0.031466 0
-0.468085 -0.031915 0
-0.446536 -0.010172 0
-0.425532 -0.074468 0
-0.404012 -0.052824 0
-0.446809 -0.053191 0
-0.42524 -0.031466 0
-0.425532 -0.074468 0
-0.404255 -0.095745 0
-0.404012 -0.052824 0
-0.382783 -0.074175 0
-0.404255 -0.095745 0
-0.382979 -0.117021 0
-0.382783 -0.074175 0
-0.361545 -0.095511 0
-0.382979 -0.117021 0
-0.361702 -0.138298 0
-0.361545 -0.095511 0
-0.340288 -0.116831 0
-0.361702 -0.138298 0
-0.340426 -0.159574 0
-0.340288 -0.116831 0
-0.319034 -0.138159 0
-0.340426 -0.159574 0
-0.319149 -0.180851 0
-0.319034 -0.138159 0
-0.297766 -0.159484 0
-0.319149 -0.180851 0
-0.297872 -0.202128 0
-0.297766 -0.159484 0
-0.276489 -0.180797 0
-0.297872 -0.202128 0
-0.276596 -0.223404 0
-0.276489 -0.180797 0
-0.255087 -0.202105 0
-0.255319 -0.244681 0
-0.233674 -0.223466 0
-0.276596 -0.223404 0
-0.255087 -0.202105 0
-0.234043 -0.265957 0
-0.212119 -0.244916 0
-0.255319 -0.244681 0
-0.233674 -0.223466 0
-0.234043 -0.265957 0
-0.212766 -0.287234 0
-0.212119 -0.244916 0
-0.190657 -0.266392 0
-0.191489 -0.308511 0
-0.169261 -0.287934 0
-0.212766 -0.287234 0
-0.190657 -0.266392 0
-0.170213 -0.329787 0
-0.147854 -0.309624 0
-0.191489 -0.308511 0
-0.169261 -0.287934 0
-0.170213 -0.329787 0
-0.148936 -0.351064 0
-0.147854 -0.309624 0
-0.126431 -0.331364 0
-0.12766 -0.37234 0
-0.105256 -0.353368 0
-0.148936 -0.351064 0
-0.126431 -0.331364 0
-0.12766 -0.37234 0
[...]
POINT_DATA 7120
VECTORS momentum double
0.00513194 -0.000642062 0
0.00626659 -0.00192851 0
0.00700357 -0.0011912 0
0.0125659 -0.00877816 0
0.00629265 -0.00321528 0
0.00700357 -0.0011912 0
0.0141588 -0.0150892 0
0.0125659 -0.00877816 0
-0.000145428 -0.000410361 0
3.90961e-05 -0.00038857 0
-5.43956e-05 -0.000888144 0
4.86975e-05 -0.00088568 0
-0.000197265 -0.000404291 0
-5.43956e-05 -0.000888144 0
5.08215e-05 -0.000388573 0
4.86975e-05 -0.00088568 0
4.12272e-05 -0.000629663 0
-0.000197265 -0.000404291 0
9.67086e-06 -0.000727217 0
5.08215e-05 -0.000388573 0
4.88284e-05 -0.000105799 0
4.12272e-05 -0.000629663 0
-4.33549e-05 -2.34179e-05 0
9.67086e-06 -0.000727217 0
0.000145394 -0.00013904 0
4.88284e-05 -0.000105799 0
4.21394e-05 -0.000316428 0
-4.33549e-05 -2.34179e-05 0
-2.93815e-06 0.000217667 0
0.000145394 -0.00013904 0
-0.000176329 0.000545886 0
4.21394e-05 -0.000316428 0
0.000483504 0.000116241 0
-2.93815e-06 0.000217667 0
0.000519743 -0.000132966 0
-0.000176329 0.000545886 0
0.000137459 2.45158e-05 0
0.000483504 0.000116241 0
0.000203526 -0.000368487 0
0.000519743 -0.000132966 0
6.86683e-05 -0.000929068 0
0.000203526 -0.000368487 0
0.000678795 -0.000606159 0
0.000519743 -0.000132966 0
-4.82767e-05 -0.000891993 0
6.86683e-05 -0.000929068 0
-0.000687113 -0.000575437 0
0.000678795 -0.000606159 0
-0.000214878 -0.000374803 0
-4.82767e-05 -0.000891993 0
-0.000495501 -0.000156472 0
-0.000687113 -0.000575437 0
-0.000146904 -3.78297e-06 0
-0.000214878 -0.000374803 0
-0.000431723 3.80191e-05 0
-0.000495501 -0.000156472 0
5.17306e-05 0.000151048 0
-0.000431723 3.80191e-05 0
0.000134482 0.000517617 0
-0.000495501 -0.000156472 0
-9.98115e-05 -0.000160668 0
5.17306e-05 0.000151048 0
-6.60563e-05 -0.000330182 0
0.000134482 0.000517617 0
3.65292e-05 -1.71104e-06 0
-9.98115e-05 -0.000160668 0
2.98184e-05 0.000114413 0
-6.60563e-05 -0.000330182 0
-3.57574e-05 -0.00046478 0
3.65292e-05 -1.71104e-06 0
-1.74347e-05 -0.000530339 0
2.98184e-05 0.000114413 0
1.99114e-05 -0.000245504 0
-3.57574e-05 -0.00046478 0
9.96079e-06 -0.000206754 0
-1.74347e-05 -0.000530339 0
-1.54077e-05 -0.000803876 0
1.99114e-05 -0.000245504 0
-6.44293e-06 -0.000825133 0
9.96079e-06 -0.000206754 0
1.95719e-05 -0.000386017 0
-1.54077e-05 -0.000803876 0
5.4773e-06 -0.000367628 0
-6.44293e-06 -0.000825133 0
-9.22454e-06 -0.000730327 0
-4.82997e-06 -0.00154888 0
-9.23794e-06 -0.000731134 0
-2.65536e-06 -0.00154985 0
-7.79843e-06 -0.000730418 0
-4.98025e-06 -0.00154786 0
-9.22454e-06 -0.000730327 0
-4.82997e-06 -0.00154888 0
-7.19172e-06 -0.000729818 0
-2.83594e-06 -0.00154648 0
-7.79843e-06 -0.000730418 0
-4.98025e-06 -0.00154786 0
-6.83836e-06 -0.000728602 0
-2.37138e-06 -0.00154503 0
-7.19172e-06 -0.000729818 0
-2.83594e-06 -0.00154648 0
-6.75237e-06 -0.000727718 0
-1.47437e-06 -0.00154336 0
-6.83836e-06 -0.000728602 0
-2.37138e-06 -0.00154503 0
-6.62245e-06 -0.000726103 0
-1.04737e-06 -0.00154151 0
-6.75237e-06 -0.000727718 0
-1.47437e-06 -0.00154336 0
-5.63569e-06 -0.00072521 0
-4.0454e-07 -0.00153949 0
-6.62245e-06 -0.000726103 0
-1.04737e-06 -0.00154151 0
-5.00832e-06 -0.000723694 0
8.01849e-07 -0.00153794 0
-5.63569e-06 -0.00072521 0
-4.0454e-07 -0.00153949 0
-2.72112e-06 -0.000722465 0
1.01384e-06 -0.00153652 0
-5.00832e-06 -0.000723694 0
8.01849e-07 -0.00153794 0
-5.0867e-07 -0.000721939 0
2.9604e-06 -0.0015358 0
-2.72112e-06 -0.000722465 0
1.01384e-06 -0.00153652 0
3.73799e-06 -0.000720686 0
5.51294e-06 -0.00153551 0
-5.0867e-07 -0.000721939 0
2.9604e-06 -0.0015358 0
9.16569e-06 -0.000720223 0
4.78455e-06 -0.00153708 0
3.73799e-06 -0.000720686 0
5.51294e-06 -0.00153551 0
9.16569e-06 -0.000720223 0
1.22706e-05 -0.000721471 0
4.78455e-06 -0.00153708 0
4.80653e-06 -0.00153908 0
1.60372e-05 -0.000722575 0
2.65279e-06 -0.00154328 0
1.22706e-05 -0.000721471 0
4.80653e-06 -0.00153908 0
1.65919e-05 -0.000726641 0
-6.35483e-08 -0.00154611 0
1.60372e-05 -0.000722575 0
2.65279e-06 -0.00154328 0
1.28748e-05 -0.000730269 0
2.32018e-06 -0.00154698 0
1.65919e-05 -0.000726641 0
-6.35483e-08 -0.00154611 0
1.26748e-05 -0.000731878 0
4.55977e-06 -0.00154722 0
1.28748e-05 -0.000730269 0
2.32018e-06 -0.00154698 0
9.13854e-06 -0.000734206 0
5.36351e-06 -0.00154758 0
1.26748e-05 -0.000731878 0
4.55977e-06 -0.00154722 0
1.70686e-06 -0.000734558 0
5.65782e-06 -0.00154746 0
9.13854e-06 -0.000734206 0
5.36351e-06 -0.00154758 0
-2.94458e-06 -0.000733159 0
4.41646e-06 -0.00154457 0
1.70686e-06 -0.000734558 0
5.65782e-06 -0.00154746 0
-4.19844e-06 -0.000731367 0
9.22526e-09 -0.00154308 0
-2.94458e-06 -0.000733159 0
4.41646e-06 -0.00154457 0
-2.77761e-06 -0.000731836 0
-2.64057e-06 -0.00153972 0
-4.19844e-06 -0.000731367 0
9.22526e-09 -0.00154308 0
-4.16579e-06 -0.000731833 0
-1.8631e-06 -0.00154079 0
-2.77761e-06 -0.000731836 0
-2.64057e-06 -0.00153972 0
-3.47105e-06 -0.000730971 0
-2.16503e-06 -0.00154039 0
-4.16579e-06 -0.000731833 0
-1.8631e-06 -0.00154079 0
-4.22903e-07 -0.00073129 0
-2.27445e-06 -0.00153867 0
-3.47105e-06 -0.000730971 0
-2.16503e-06 -0.00154039 0
-3.02535e-06 -0.000732673 0
-2.60979e-06 -0.0015373 0
-4.22903e-07 -0.00073129 0
-2.27445e-06 -0.00153867 0
-8.53816e-06 -0.000733648 0
-2.00873e-06 -0.00153458 0
-3.02535e-06 -0.000732673 0
-2.60979e-06 -0.0015373 0
-1.12026e-05 -0.000731091 0
-1.22397e-06 -0.00153377 0
-8.53816e-06 -0.000733648 0
-2.00873e-06 -0.00153458 0
-1.11946e-05 -0.000728365 0
-2.89418e-06 -0.00153344 0
-1.12026e-05 -0.000731091 0
-1.22397e-06 -0.00153377 0
-1.0739e-05 -0.000726313 0
-3.07356e-06 -0.00153313 0
-1.11946e-05 -0.000728365 0
-2.89418e-06 -0.00153344 0
-9.59016e-06 -0.000723467 0
-1.81004e-06 -0.00153352 0
-1.0739e-05 -0.000726313 0
-3.07356e-06 -0.00153313 0
-7.21433e-06 -0.000720833 0
-1.51505e-06 -0.00153417 0
-9.59016e-06 -0.000723467 0
-1.81004e-06 -0.00153352 0
-3.28388e-06 -0.000719982 0
-1.21601e-06 -0.00153266 0
-7.21433e-06 -0.000720833 0
-1.51505e-06 -0.00153417 0
1.74921e-07 -0.000720027 0
2.38534e-06 -0.00153288 0
-3.28388e-06 -0.000719982 0
-1.21601e-06 -0.00153266 0
7.79635e-06 -0.000719259 0
7.43626e-06 -0.00153203 0
1.74921e-07 -0.000720027 0
2.38534e-06 -0.00153288 0
1.69739e-05 -0.000720254 0
6.94707e-06 -0.00153338 0
7.79635e-06 -0.000719259 0
7.43626e-06 -0.00153203 0
1.74855e-05 -0.000723804 0
5.48345e-06 -0.00153206 0
1.69739e-05 -0.000720254 0
6.94707e-06 -0.00153338 0
1.41995e-05 -0.000727044 0
2.73766e-06 -0.00153075 0
1.74855e-05 -0.000723804 0
5.48345e-06 -0.00153206 0
9.71891e-06 -0.000731715 0
-3.61109e-06 -0.0015278 0
1.41995e-05 -0.000727044 0
2.73766e-06 -0.00153075 0
9.71891e-06 -0.000731715 0
-1.85965e-06 -0.000736687 0
-3.61109e-06 -0.0015278 0
-1.01494e-05 -0.00152357 0
-1.50842e-05 -0.000736561 0
-1.05338e-05 -0.0015285 0
-1.85965e-06 -0.000736687 0
-1.01494e-05 -0.00152357 0
-2.69114e-05 -0.000732252 0
-7.61109e-06 -0.00153377 0
-1.50842e-05 -0.000736561 0
-1.05338e-05 -0.0015285 0
-2.76646e-05 -0.000725174 0
-3.76273e-06 -0.00153632 0
-2.69114e-05 -0.000732252 0
-7.61109e-06 -0.00153377 0
-2.57821e-05 -0.000718941 0
-5.04218e-06 -0.0015397 0
-2.76646e-05 -0.000725174 0
-3.76273e-06 -0.00153632 0
-7.81257e-06 -0.000712742 0
1.05361e-05 -0.00154494 0
-2.57821e-05 -0.000718941 0
-5.04218e-06 -0.0015397 0
-7.81257e-06 -0.000712742 0
4.07667e-06 -0.000706144 0
1.05361e-05 -0.00154494 0
8.90895e-06 -0.00154699 0
4.07667e-06 -0.000706144 0
3.92164e-05 -0.000708682 0
8.90895e-06 -0.00154699 0
2.75008e-05 -0.00154427 0
3.13404e-05 -0.000714022 0
4.8649e-06 -0.00154239 0
3.92164e-05 -0.000708682 0
2.75008e-05 -0.00154427 0
4.966e-05 -0.000720014 0
2.95692e-05 -0.0015466 0
3.13404e-05 -0.000714022 0
4.8649e-06 -0.00154239 0
-4.31216e-05 -0.000715647 0
-5.92969e-05 -0.00155639 0
4.966e-05 -0.000720014 0
2.95692e-05 -0.0015466 0
-5.38064e-05 -0.000722001 0
-8.03726e-05 -0.00155915 0
-4.31216e-05 -0.000715647 0
-5.92969e-05 -0.00155639 0
-0.000388449 -0.000741676 0
-0.000406343 -0.00148821 0
-5.38064e-05 -0.000722001 0
-8.03726e-05 -0.00155915 0
-0.000762511 -0.000761248 0
-0.000752267 -0.00136957 0
-0.000388449 -0.000741676 0
-0.000406343 -0.00148821 0
-0.00245008 -0.000737608 0
-0.00229132 -0.00113067 0
-0.000762511 -0.000761248 0
-0.000752267 -0.00136957 0
-0.00519135 -0.000705721 0
-0.00518225 -0.000387988 0
-0.00245008 -0.000737608 0
-0.00229132 -0.00113067 0
-0.0103741 -0.00122595 0
-0.0146023 -0.00223715 0
-0.00519135 -0.000705721 0
-0.00518225 -0.000387988 0
-0.0121887 -0.00229808 0
-0.0171344 -0.0143962 0
-0.0103741 -0.00122595 0
-0.0146023 -0.00223715 0
-0.0121887 -0.00229808 0
-0.0111253 -0.00232396 0
-0.0171344 -0.0143962 0
-0.0103002 -0.0226748 0
-0.00056524 -0.00251024 0
0.000512802 -0.0259703 0
0.000723074 -0.00122266 0
-0.000770805 -0.0187704 0
1.69805e-05 -0.000398903 0
-7.21364e-06 -0.000801339 0
1.95719e-05 -0.000386017 0
-1.54077e-05 -0.000803876 0
1.69805e-05 -0.000398903 0
1.00752e-05 -0.000410068 0
-7.21364e-06 -0.000801339 0
1.84751e-07 -0.00079528 0
6.76652e-06 -0.000410261 0
3.22864e-06 -0.00079789 0
1.00752e-05 -0.000410068 0
1.84751e-07 -0.00079528 0
6.76652e-06 -0.000410261 0
9.70821e-06 -0.000413858 0
3.22864e-06 -0.00079789 0
1.4707e-06 -0.00079474 0
9.70821e-06 -0.000413858 0
1.1121e-05 -0.000414666 0
1.4707e-06 -0.00079474 0
3.49912e-06 -0.000797201 0
1.1121e-05 -0.000414666 0
1.13911e-05 -0.000416551 0
3.49912e-06 -0.000797201 0
4.72689e-06 -0.000797532 0
1.13911e-05 -0.000416551 0
1.17861e-05 -0.000416074 0
4.72689e-06 -0.000797532 0
3.50758e-06 -0.000801507 0
1.17861e-05 -0.000416074 0
1.17072e-05 -0.000418485 0
3.50758e-06 -0.000801507 0
4.93918e-07 -0.000803871 0
1.17072e-05 -0.000418485 0
9.26501e-06 -0.000420583 0
4.93918e-07 -0.000803871 0
4.01887e-07 -0.000806695 0
9.26501e-06 -0.000420583 0
6.78835e-06 -0.000422475 0
4.01887e-07 -0.000806695 0
4.29483e-07 -0.000808609 0
6.78835e-06 -0.000422475 0
4.95108e-06 -0.0004235 0
4.29483e-07 -0.000808609 0
6.07273e-07 -0.000810351 0
4.95108e-06 -0.0004235 0
3.55936e-06 -0.000424459 0
6.07273e-07 -0.000810351 0
8.23286e-07 -0.000811199 0
3.55936e-06 -0.000424459 0
2.70782e-06 -0.000424751 0
8.23286e-07 -0.000811199 0
1.41621e-06 -0.000811944 0
2.70782e-06 -0.000424751 0
2.29651e-06 -0.000424943 0
1.41621e-06 -0.000811944 0
1.62747e-06 -0.000812318 0
2.29651e-06 -0.000424943 0
2.64376e-06 -0.000424985 0
1.62747e-06 -0.000812318 0
1.80201e-06 -0.000812732 0
2.64376e-06 -0.000424985 0
4.19965e-06 -0.000425083 0
1.80201e-06 -0.000812732 0
9.5937e-07 -0.000813751 0
4.19965e-06 -0.000425083 0
4.49506e-06 -0.000425937 0
9.5937e-07 -0.000813751 0
2.63751e-08 -0.00081473 0
4.49506e-06 -0.000425937 0
4.6301e-06 -0.000426841 0
2.63751e-08 -0.00081473 0
7.65691e-07 -0.00081613 0
4.6301e-06 -0.000426841 0
4.62041e-06 -0.000427794 0
7.65691e-07 -0.00081613 0
1.34598e-06 -0.000817538 0
4.62041e-06 -0.000427794 0
3.59118e-06 -0.000428479 0
1.34598e-06 -0.000817538 0
1.61537e-06 -0.000818652 0
3.59118e-06 -0.000428479 0
2.95728e-06 -0.000428695 0
1.61537e-06 -0.000818652 0
1.46146e-06 -0.000819783 0
2.95728e-06 -0.000428695 0
2.57825e-06 -0.00042908 0
1.46146e-06 -0.000819783 0
1.45254e-06 -0.000820037 0
2.57825e-06 -0.00042908 0
2.21155e-06 -0.000429029 0
1.45254e-06 -0.000820037 0
1.48811e-06 -0.00081999 0
2.21155e-06 -0.000429029 0
1.92487e-06 -0.000428936 0
1.48811e-06 -0.00081999 0
9.61358e-07 -0.000819845 0
0.0266165 -0.0273723 0
0.017173 -0.0186909 0
0.0191064 -0.0358223 0
0.0159456 -0.0223353 0
0.017173 -0.0186909 0
0.0103196 -0.0109778 0
0.0159456 -0.0223353 0
0.0103993 -0.0117652 0
0.00518955 -0.00565307 0
0.00540275 -0.00538797 0
0.0103196 -0.0109778 0
0.0103993 -0.0117652 0
0.00518955 -0.00565307 0
0.00219375 -0.00278502 0
0.00540275 -0.00538797 0
0.00186022 -0.00269495 0
0.00219375 -0.00278502 0
0.000832945 -0.00141384 0
0.00186022 -0.00269495 0
0.000611238 -0.0015819 0
0.000169302 -0.000760953 0
-0.000194424 -0.000991375 0
0.000832945 -0.00141384 0
0.000611238 -0.0015819 0
-7.83585e-05 -0.000515617 0
-0.000386638 -0.000769072 0
0.000169302 -0.000760953 0
-0.000194424 -0.000991375 0
-7.83585e-05 -0.000515617 0
-0.000215127 -0.00037026 0
-0.000386638 -0.000769072 0
-0.000549139 -0.000640648 0
-0.000215127 -0.00037026 0
-0.000241479 -0.000335159 0
-0.000549139 -0.000640648 0
-0.000562008 -0.000606812 0
-0.000260216 -0.000304635 0
-0.000589894 -0.00056838 0
-0.000241479 -0.000335159 0
-0.000562008 -0.000606812 0
-0.000260216 -0.000304635 0
-0.000254269 -0.000310901 0
-0.000589894 -0.00056838 0
-0.000571304 -0.000561993 0
-0.000254269 -0.000310901 0
-0.000257023 -0.000297855 0
-0.000571304 -0.000561993 0
-0.000568223 -0.000551983 0
-0.000257023 -0.000297855 0
-0.000248676 -0.000300825 0
-0.000568223 -0.000551983 0
-0.000555134 -0.000547702 0
-0.000248676 -0.000300825 0
-0.000248623 -0.000292086 0
-0.000555134 -0.000547702 0
-0.000547835 -0.000539826 0
-0.000243294 -0.000289597 0
-0.000537135 -0.000529135 0
-0.000248623 -0.000292086 0
-0.000547835 -0.000539826 0
-0.000243068 -0.000285742 0
-0.000528788 -0.000517576 0
-0.000243294 -0.000289597 0
-0.000537135 -0.000529135 0
-0.000243068 -0.000285742 0
-0.000243184 -0.000279759 0
-0.000528788 -0.000517576 0
-0.00052067 -0.000505364 0
-0.000243184 -0.000279759 0
-0.000240624 -0.000277229 0
-0.00052067 -0.000505364 0
-0.000512095 -0.000496177 0
-0.000240624 -0.000277229 0
-0.000238906 -0.000272424 0
-0.000512095 -0.000496177 0
-0.000505103 -0.000488415 0
-0.000238906 -0.000272424 0
-0.000232386 -0.000271771 0
-0.000505103 -0.000488415 0
-0.000498575 -0.000483962 0
-0.000232386 -0.000271771 0
-0.000229818 -0.000269586 0
-0.000498575 -0.000483962 0
-0.000489965 -0.000477827 0
-0.000229818 -0.000269586 0
-0.000220292 -0.000273596 0
-0.000489965 -0.000477827 0
-0.000480725 -0.000472009 0
-0.000220292 -0.000273596 0
-0.000219772 -0.000273514 0
-0.000480725 -0.000472009 0
-0.000473269 -0.000472903 0
-0.000209155 -0.000268425 0
-0.000467053 -0.000484215 0
-0.000219772 -0.000273514 0
-0.000473269 -0.000472903 0
-0.000202858 -0.000263793 0
-0.000480821 -0.000482282 0
-0.000209155 -0.000268425 0
-0.000467053 -0.000484215 0
-0.000202858 -0.000263793 0
-0.000201183 -0.000267041 0
-0.000480821 -0.000482282 0
-0.00048114 -0.000471061 0
-0.000212588 -0.000270081 0
-0.000486466 -0.000448169 0
-0.000201183 -0.000267041 0
-0.00048114 -0.000471061 0
-0.000222251 -0.000290514 0
-0.000450583 -0.000432477 0
-0.000212588 -0.000270081 0
-0.000486466 -0.000448169 0
-0.000222251 -0.000290514 0
-0.000251043 -0.000263685 0
-0.000450583 -0.000432477 0
-0.000442462 -0.000436466 0
-0.000222013 -0.000269079 0
-0.000440823 -0.000464076 0
-0.000251043 -0.000263685 0
-0.000442462 -0.000436466 0
-0.000222013 -0.000269079 0
-0.000201809 -0.000287417 0
-0.000440823 -0.000464076 0
-0.000481261 -0.000477135 0
-0.000201809 -0.000287417 0
-0.000120212 -0.000393173 0
-0.000481261 -0.000477135 0
-0.000394396 -0.000574986 0
-0.000120212 -0.000393173 0
-0.000109318 -0.000420146 0
-0.000394396 -0.000574986 0
-0.000373241 -0.000547996 0
-0.000109318 -0.000420146 0
-0.000137778 -0.000379107 0
-0.000373241 -0.000547996 0
-6.47576e-05 -0.00077615 0
-0.000137778 -0.000379107 0
-7.20958e-05 -0.000251536 0
-6.47576e-05 -0.00077615 0
-0.000201161 -0.000395864 0
-7.20958e-05 -0.000251536 0
5.26493e-06 -0.000409209 0
-0.000201161 -0.000395864 0
-0.000225167 -0.000812721 0
5.26493e-06 -0.000409209 0
9.63419e-05 -0.000297132 0
-0.000225167 -0.000812721 0
1.38423e-05 -0.000690337 0
9.63419e-05 -0.000297132 0
7.05432e-05 -0.000397498 0
1.38423e-05 -0.000690337 0
-0.00024885 -0.000758744 0
7.05432e-05 -0.000397498 0
-6.00034e-06 -0.000466798 0
-0.00024885 -0.000758744 0
-8.14917e-06 -0.00073566 0
-6.00034e-06 -0.000466798 0
-0.000145428 -0.000410361 0
-8.14917e-06 -0.00073566 0
-5.43956e-05 -0.000888144 0
1.48811e-06 -0.00081999 0
9.61358e-07 -0.000819845 0
5.76213e-07 -0.000290737 0
6.97841e-08 -0.000291653 0
5.76213e-07 -0.000290737 0
6.97841e-08 -0.000291653 0
1.01687e-07 -0.000457102 0
-2.17224e-07 -0.000456677 0
1.01687e-07 -0.000457102 0
-2.17224e-07 -0.000456677 0
-6.9566e-07 -7.04781e-05 0
9.54513e-08 -7.01893e-05 0
-6.9566e-07 -7.04781e-05 0
9.54513e-08 -7.01893e-05 0
1.45382e-07 -0.000200306 0
-2.84313e-07 -0.00020042 0
1.45382e-07 -0.000200306 0
-2.84313e-07 -0.00020042 0
-7.12769e-07 1.59799e-05 0
-1.30987e-07 1.63975e-05 0
-7.12769e-07 1.59799e-05 0
-1.30987e-07 1.63975e-05 0
2.062e-07 -8.54566e-05 0
4.47415e-08 -8.56939e-05 0
-6.80928e-07 2.79944e-05 0
2.062e-07 -8.54566e-05 0
-5.15991e-07 2.79662e-05 0
4.47415e-08 -8.56939e-05 0
-6.80928e-07 2.79944e-05 0
-5.15991e-07 2.79662e-05 0
-3.31615e-07 -3.88925e-05 0
-1.35977e-07 -3.89918e-05 0
-3.31615e-07 -3.88925e-05 0
-1.35977e-07 -3.89918e-05 0
-8.27795e-07 1.99824e-05 0
-7.76865e-07 1.98015e-05 0
-8.27795e-07 1.99824e-05 0
-7.76865e-07 1.98015e-05 0
-8.21161e-07 -1.90374e-05 0
-3.84929e-07 -1.89726e-05 0
-8.21161e-07 -1.90374e-05 0
-3.84929e-07 -1.89726e-05 0
-1.11373e-06 1.09555e-05 0
-6.6183e-07 1.07169e-05 0
-1.11373e-06 1.09555e-05 0
-6.6183e-07 1.07169e-05 0
-1.28448e-06 -9.6758e-06 0
-9.46234e-07 -1.00439e-05 0
-1.28448e-06 -9.6758e-06 0
-9.46234e-07 -1.00439e-05 0
-1.67662e-06 4.58949e-06 0
-1.77617e-06 4.04379e-06 0
-1.67662e-06 4.58949e-06 0
-1.77617e-06 4.04379e-06 0
-2.09308e-06 -4.87704e-06 0
-2.80613e-06 -5.9654e-06 0
-2.09308e-06 -4.87704e-06 0
-2.80613e-06 -5.9654e-06 0
-2.68397e-06 2.45455e-07 0
-5.22284e-06 -1.16612e-06 0
-2.68397e-06 2.45455e-07 0
-5.22284e-06 -1.16612e-06 0
-3.27078e-06 -1.79971e-06 0
-7.47648e-06 -3.5011e-06 0
-3.27078e-06 -1.79971e-06 0
-7.47648e-06 -3.5011e-06 0
-3.59291e-06 -2.79018e-06 0
-1.08664e-05 -4.31304e-06 0
-3.59291e-06 -2.79018e-06 0
-1.08664e-05 -4.31304e-06 0
-3.3732e-06 2.61444e-06 0
-1.22234e-05 2.72222e-06 0
-3.3732e-06 2.61444e-06 0
-1.22234e-05 2.72222e-06 0
-2.56811e-06 -5.75877e-06 0
-1.07619e-05 -4.09336e-06 0
-2.56811e-06 -5.75877e-06 0
-1.07619e-05 -4.09336e-06 0
-1.36558e-06 9.36705e-06 0
-7.09269e-06 1.15974e-05 0
-1.36558e-06 9.36705e-06 0
-7.09269e-06 1.15974e-05 0
-2.55364e-07 -1.35678e-05 0
-3.60907e-06 -1.16908e-05 0
-2.55364e-07 -1.35678e-05 0
-3.60907e-06 -1.16908e-05 0
8.52918e-07 1.93386e-05 0
-1.11583e-06 2.04684e-05 0
8.52918e-07 1.93386e-05 0
-1.11583e-06 2.04684e-05 0
1.21703e-06 -3.28209e-05 0
4.50881e-07 -3.15877e-05 0
1.21703e-06 -3.28209e-05 0
4.50881e-07 -3.15877e-05 0
2.06017e-06 3.75947e-05 0
1.85947e-06 3.63857e-05 0
2.06017e-06 3.75947e-05 0
1.85947e-06 3.63857e-05 0
-5.0201e-07 -7.36311e-05 0
-1.43796e-06 -7.35329e-05 0
-5.0201e-07 -7.36311e-05 0
-1.43796e-06 -7.35329e-05 0
1.92273e-06 6.08402e-05 0
1.8173e-06 6.13734e-05 0
1.92273e-06 6.08402e-05 0
1.8173e-06 6.13734e-05 0
4.06876e-07 -0.000202114 0
-9.41541e-07 -0.000200382 0
4.06876e-07 -0.000202114 0
-9.41541e-07 -0.000200382 0
5.00292e-06 2.46521e-05 0
5.17353e-06 2.51725e-05 0
5.00292e-06 2.46521e-05 0
5.17353e-06 2.51725e-05 0
-1.93402e-06 -0.000596756 0
-1.26351e-06 -0.000597654 0
-1.93402e-06 -0.000596756 0
-1.26351e-06 -0.000597654 0
-8.01643e-07 -0.000297187 0
-2.79437e-07 -0.000296998 0
-8.01643e-07 -0.000297187 0
-2.79437e-07 -0.000296998 0
-4.82997e-06 -0.00154888 0
-2.65536e-06 -0.00154985 0
0.0196412 -0.523346 0
0.0191225 -0.525371 0
-0.00143225 -0.518749 0
0.00124151 -0.539381 0
0.0226124 -0.519593 0
0.00237086 -0.539833 0
0.0191225 -0.525371 0
0.00124151 -0.539381 0
0.00540275 -0.00538797 0
0.0063821 -0.00330343 0
0.0103993 -0.0117652 0
0.014289 -0.00649181 0
0.00540275 -0.00538797 0
0.00186022 -0.00269495 0
0.0063821 -0.00330343 0
0.00229466 -0.00133078 0
0.00186022 -0.00269495 0
0.000611238 -0.0015819 0
0.00229466 -0.00133078 0
0.00109159 -0.000849762 0
-0.000194424 -0.000991375 0
0.00028579 -0.00032934 0
0.000611238 -0.0015819 0
0.00109159 -0.000849762 0
-0.000386638 -0.000769072 0
7.71629e-05 -0.000295161 0
-0.000194424 -0.000991375 0
0.00028579 -0.00032934 0
-0.000386638 -0.000769072 0
-0.000549139 -0.000640648 0
7.71629e-05 -0.000295161 0
-0.000111869 -0.000148536 0
-0.000549139 -0.000640648 0
-0.000562008 -0.000606812 0
-0.000111869 -0.000148536 0
-0.000130445 -0.000170885 0
-0.000589894 -0.00056838 0
-0.000158783 -0.000136187 0
-0.000562008 -0.000606812 0
-0.000130445 -0.000170885 0
-0.000589894 -0.00056838 0