# vtk DataFile Version 3.0
#This file was generated by the deal.II library on 2016/12/20 at 10:57:05
ASCII
DATASET UNSTRUCTURED_GRID

POINTS 7480 double
0.12 -0.5 0
0.15 -0.5 0
0.119014 -0.4708 0
0.15 -0.471429 0
0.11755 -0.441479 0
0.119014 -0.4708 0
0.15 -0.442857 0
0.15 -0.471429 0
0.117242 -0.412206 0
0.11755 -0.441479 0
0.15 -0.414286 0
0.15 -0.442857 0
0.118129 -0.383064 0
0.117242 -0.412206 0
0.15 -0.385714 0
0.15 -0.414286 0
0.12021 -0.354337 0
0.118129 -0.383064 0
0.15 -0.357143 0
0.15 -0.385714 0
0.121793 -0.32584 0
0.12021 -0.354337 0
0.15 -0.328571 0
0.15 -0.357143 0
0.122717 -0.296869 0
0.121793 -0.32584 0
0.15 -0.3 0
0.15 -0.328571 0
0.123759 -0.266752 0
0.122717 -0.296869 0
0.153091 -0.267708 0
0.15 -0.3 0
0.18456 -0.26795 0
0.153091 -0.267708 0
0.183333 -0.3 0
0.15 -0.3 0
0.216606 -0.268111 0
0.18456 -0.26795 0
0.216667 -0.3 0
0.183333 -0.3 0
0.24835 -0.26841 0
0.216606 -0.268111 0
0.25 -0.3 0
0.216667 -0.3 0
0.278782 -0.268564 0
0.24835 -0.26841 0
0.279437 -0.298917 0
0.25 -0.3 0
0.279638 -0.328111 0
0.279437 -0.298917 0
0.25 -0.328571 0
0.25 -0.3 0
0.27971 -0.356801 0
0.279638 -0.328111 0
0.25 -0.357143 0
0.25 -0.328571 0
0.279677 -0.385395 0
0.27971 -0.356801 0
0.25 -0.385714 0
0.25 -0.357143 0
0.279641 -0.413938 0
0.279677 -0.385395 0
0.25 -0.414286 0
0.25 -0.385714 0
0.279666 -0.442534 0
0.279641 -0.413938 0
0.25 -0.442857 0
0.25 -0.414286 0
0.279811 -0.471266 0
0.279666 -0.442534 0
0.25 -0.471429 0
0.25 -0.442857 0
0.28 -0.5 0
0.279811 -0.471266 0
0.25 -0.5 0
0.25 -0.471429 0
0.970149 0.5 0
0.970096 0.46978 0
1 0.5 0
1 0.469697 0
0.940299 0.5 0
0.940231 0.46984 0
0.970149 0.5 0
0.970096 0.46978 0
0.910448 0.5 0
0.910371 0.469856 0
0.940299 0.5 0
0.940231 0.46984 0
0.880597 0.5 0
0.880527 0.469909 0
0.910448 0.5 0
0.910371 0.469856 0
0.850746 0.5 0
0.850684 0.469926 0
0.880597 0.5 0
0.880527 0.469909 0
0.820896 0.5 0
0.820842 0.469978 0
0.850746 0.5 0
0.850684 0.469926 0
0.791045 0.5 0
0.791001 0.470016 0
0.820896 0.5 0
0.820842 0.469978 0
0.761194 0.5 0
0.761159 0.470055 0
0.791045 0.5 0
0.791001 0.470016 0
0.731343 0.5 0
0.731316 0.470091 0
0.761194 0.5 0
0.761159 0.470055 0
0.701493 0.5 0
0.701472 0.470118 0
0.731343 0.5 0
0.731316 0.470091 0
0.671642 0.5 0
0.671627 0.470134 0
0.701493 0.5 0
0.701472 0.470118 0
0.641791 0.5 0
0.64178 0.470142 0
0.671642 0.5 0
0.671627 0.470134 0
0.641791 0.5 0
0.61194 0.5 0
0.64178 0.470142 0
0.611934 0.470065 0
0.58209 0.5 0
0.582089 0.470002 0
0.61194 0.5 0
0.611934 0.470065 0
0.552239 0.5 0
0.552248 0.469853 0
0.58209 0.5 0
0.582089 0.470002 0
0.522388 0.5 0
0.522413 0.469718 0
0.552239 0.5 0
0.552248 0.469853 0
0.492537 0.5 0
0.492577 0.469656 0
0.522388 0.5 0
0.522413 0.469718 0
0.462687 0.5 0
0.462743 0.469571 0
0.492537 0.5 0
0.492577 0.469656 0
0.432836 0.5 0
0.432895 0.46963 0
0.462687 0.5 0
0.462743 0.469571 0
0.402985 0.5 0
0.403046 0.469669 0
0.432836 0.5 0
0.432895 0.46963 0
0.373134 0.5 0
0.373191 0.469745 0
0.402985 0.5 0
0.403046 0.469669 0
0.343284 0.5 0
0.343335 0.469723 0
0.373134 0.5 0
0.373191 0.469745 0
0.313433 0.5 0
0.313478 0.469741 0
0.343284 0.5 0
0.343335 0.469723 0
0.283582 0.5 0
0.283622 0.469783 0
0.313433 0.5 0
0.313478 0.469741 0
0.253731 0.5 0
0.253768 0.469742 0
0.283582 0.5 0
0.283622 0.469783 0
0.223881 0.5 0
0.223918 0.469737 0
0.253731 0.5 0
0.253768 0.469742 0
0.19403 0.5 0
0.194064 0.46981 0
0.223881 0.5 0
0.223918 0.469737 0
0.164179 0.5 0
0.16421 0.469881 0
0.19403 0.5 0
0.194064 0.46981 0
0.134328 0.5 0
0.134355 0.46994 0
0.164179 0.5 0
0.16421 0.469881 0
0.104478 0.5 0
0.1045 0.469997 0
0.134328 0.5 0
0.134355 0.46994 0
0.074627 0.5 0
0.074645 0.470051 0
0.104478 0.5 0
0.1045 0.469997 0
0.044776 0.5 0
0.04479 0.470093 0
0.074627 0.5 0
0.074645 0.470051 0
0.014925 0.5 0
0.014935 0.47012 0
0.044776 0.5 0
0.04479 0.470093 0
-0.014925 0.5 0
-0.014918 0.470135 0
0.014925 0.5 0
0.014935 0.47012 0
-0.044776 0.5 0
-0.044771 0.470143 0
-0.014925 0.5 0
-0.014918 0.470135 0
-0.074627 0.5 0
-0.074623 0.470146 0
-0.044776 0.5 0
-0.044771 0.470143 0
-0.104478 0.5 0
-0.104496 0.469979 0
-0.074627 0.5 0
-0.074623 0.470146 0
-0.134328 0.5 0
-0.134359 0.469935 0
-0.104478 0.5 0
-0.104496 0.469979 0
-0.164179 0.5 0
-0.164225 0.469839 0
-0.134328 0.5 0
-0.134359 0.469935 0
-0.164179 0.5 0
-0.19403 0.5 0
-0.164225 0.469839 0
-0.194083 0.469797 0
-0.223881 0.5 0
-0.22394 0.469753 0
-0.19403 0.5 0
-0.194083 0.469797 0
-0.253731 0.5 0
-0.253798 0.469819 0
-0.223881 0.5 0
-0.22394 0.469753 0
-0.283582 0.5 0
-0.283647 0.470019 0
-0.253731 0.5 0
-0.253798 0.469819 0
-0.313433 0.5 0
-0.313491 0.470151 0
-0.283582 0.5 0
-0.283647 0.470019 0
-0.343284 0.5 0
-0.343348 0.470381 0
-0.313433 0.5 0
-0.313491 0.470151 0
-0.343284 0.5 0
-0.373134 0.5 0
-0.343348 0.470381 0
-0.373195 0.470395 0
-0.373134 0.5 0
-0.402985 0.5 0
-0.373195 0.470395 0
-0.403049 0.470404 0
-0.432836 0.5 0
-0.432937 0.470297 0
-0.402985 0.5 0
-0.403049 0.470404 0
-0.462687 0.5 0
-0.462848 0.469995 0
-0.432836 0.5 0
-0.432937 0.470297 0
-0.492537 0.5 0
-0.492807 0.469765 0
-0.462687 0.5 0
-0.462848 0.469995 0
-0.522388 0.5 0
-0.52276 0.46958 0
-0.492537 0.5 0
-0.492807 0.469765 0
-0.552239 0.5 0
-0.55273 0.469652 0
-0.522388 0.5 0
-0.52276 0.46958 0
-0.58209 0.5 0
-0.582662 0.469731 0
-0.552239 0.5 0
-0.55273 0.469652 0
-0.61194 0.5 0
-0.612594 0.469999 0
-0.58209 0.5 0
-0.582662 0.469731 0
-0.641791 0.5 0
-0.642647 0.470419 0
-0.61194 0.5 0
-0.612594 0.469999 0
-0.671642 0.5 0
-0.672638 0.470543 0
-0.641791 0.5 0
-0.642647 0.470419 0
-0.701493 0.5 0
-0.702968 0.4698 0
-0.671642 0.5 0
-0.672638 0.470543 0
-0.701493 0.5 0
-0.731343 0.5 0
-0.702968 0.4698 0
-0.733232 0.468149 0
-0.731343 0.5 0
-0.761194 0.5 0
-0.733232 0.468149 0
-0.765399 0.466448 0
-0.820896 0.5 0
-0.822797 0.47207 0
-0.791045 0.5 0
-0.795702 0.469563 0
0.31 -0.5 0
0.309694 -0.471123 0
0.28 -0.5 0
0.279811 -0.471266 0
0.31 -0.5 0
0.34 -0.5 0
0.309694 -0.471123 0
0.339686 -0.471033 0
0.37 -0.5 0
0.369721 -0.471055 0
0.34 -0.5 0
0.339686 -0.471033 0
0.37 -0.5 0
0.4 -0.5 0
0.369721 -0.471055 0
0.399756 -0.470957 0
0.4 -0.5 0
0.43 -0.5 0
0.399756 -0.470957 0
0.429805 -0.470822 0
0.43 -0.5 0
0.46 -0.5 0
0.429805 -0.470822 0
0.459835 -0.470712 0
0.46 -0.5 0
0.49 -0.5 0
0.459835 -0.470712 0
0.489873 -0.470554 0
0.49 -0.5 0
0.52 -0.5 0
0.489873 -0.470554 0
0.519906 -0.470379 0
0.52 -0.5 0
0.55 -0.5 0
0.519906 -0.470379 0
0.54993 -0.470248 0
0.55 -0.5 0
0.58 -0.5 0
0.54993 -0.470248 0
0.579948 -0.470155 0
0.58 -0.5 0
0.61 -0.5 0
0.579948 -0.470155 0
0.609962 -0.470091 0
0.61 -0.5 0
0.64 -0.5 0
0.609962 -0.470091 0
0.639972 -0.47005 0
0.64 -0.5 0
0.67 -0.5 0
0.639972 -0.47005 0
0.66998 -0.470026 0
0.67 -0.5 0
0.7 -0.5 0
0.66998 -0.470026 0
0.699986 -0.470013 0
0.7 -0.5 0
0.73 -0.5 0
0.699986 -0.470013 0
0.72999 -0.470006 0
0.73 -0.5 0
0.76 -0.5 0
0.72999 -0.470006 0
0.759994 -0.470003 0
0.76 -0.5 0
0.79 -0.5 0
0.759994 -0.470003 0
0.78998 -0.469916 0
0.79 -0.5 0
0.82 -0.5 0
0.78998 -0.469916 0
0.819956 -0.469877 0
0.82 -0.5 0
0.85 -0.5 0
0.819956 -0.469877 0
0.849929 -0.469833 0
0.85 -0.5 0
0.88 -0.5 0
0.849929 -0.469833 0
0.879924 -0.469805 0
0.88 -0.5 0
0.91 -0.5 0
0.879924 -0.469805 0
0.909913 -0.469792 0
0.91 -0.5 0
0.94 -0.5 0
0.909913 -0.469792 0
0.939922 -0.469775 0
0.94 -0.5 0
0.97 -0.5 0
0.939922 -0.469775 0
0.969956 -0.46974 0
0.97 -0.5 0
1 -0.5 0
0.969956 -0.46974 0
1 -0.469697 0
-0.553191 0.053191 0
-0.531915 0.031915 0
-0.53184 0.075023 0
-0.510492 0.053733 0
-0.531915 0.031915 0
-0.510638 0.010638 0
-0.510492 0.053733 0
-0.489127 0.032461 0
-0.510638 0.010638 0
-0.489362 -0.010638 0
-0.489127 0.032461 0
-0.467791 0.011178 0
-0.489362 -0.010638 0
-0.468085 -0.031915 0
-0.467791 0.011178 0
-0.446536 -0.010172 0
-0.446809 -0.053191 0
-0.42524 -0.031466 0
-0.468085 -0.031915 0
-0.446536 -0.010172 0
-0.425532 -0.074468 0
-0.404012 -0.052824 0
-0.446809 -0.053191 0
-0.42524 -0.031466 0
-0.425532 -0.074468 0
-0.404255 -0.095745 0
-0.404012 -0.052824 0
-0.382783 -0.074175 0
-0.404255 -0.095745 0
-0.382979 -0.117021 0
-0.382783 -0.074175 0
-0.361545 -0.095511 0
-0.382979 -0.117021 0
-0.361702 -0.138298 0
-0.361545 -0.095511 0
-0.340288 -0.116831 0
-0.361702 -0.138298 0
-0.340426 -0.159574 0
-0.340288 -0.116831 0
-0.319034 -0.138159 0
-0.340426 -0.159574 0
-0.319149 -0.180851 0
-0.319034 -0.138159 0
-0.297766 -0.159484 0
-0.319149 -0.180851 0
-0.297872 -0.202128 0
-0.297766 -0.159484 0
-0.276489 -0.180797 0
-0.297872 -0.202128 0
-0.276596 -0.223404 0
-0.276489 -0.180797 0
-0.255087 -0.202105 0
-0.255319 -0.244681 0
-0.233674 -0.223466 0
-0.276596 -0.223404 0
-0.255087 -0.202105 0
-0.234043 -0.265957 0
-0.212119 -0.244916 0
-0.255319 -0.244681 0
-0.233674 -0.223466 0
-0.234043 -0.265957 0
-0.212766 -0.287234 0
-0.212119 -0.244916 0
-0.190657 -0.266392 0
-0.191489 -0.308511 0
-0.169261 -0.287934 0
-0.212766 -0.287234 0
-0.190657 -0.266392 0
-0.170213 -0.329787 0
-0.147854 -0.309624 0
-0.191489 -0.308511 0
-0.169261 -0.287934 0
-0.170213 -0.329787 0
-0.148936 -0.351064 0
-0.147854 -0.309624 0
-0.126431 -0.331364 0
-0.12766 -0.37234 0
-0.105256 -0.353368 0
-0.148936 -0.351064 0
-0.126431 -0.331364 0
-0.12766 -0.37234 0
-0.106383 -0.393617 0
-0.105256 -0.353368 0
-0.083924 -0.375263 0
-0.106383 -0.393617 0
-0.085106 -0.414894 0
-0.083924 -0.375263 0
-0.062097 -0.396824 0
-0.085106 -0.414894 0
-0.06383 -0.43617 0
-0.062097 -0.396824 0
-0.040132 -0.418076 0
-0.06383 -0.43617 0
-0.042553 -0.457447 0
-0.040132 -0.418076 0
-0.019646 -0.439891 0
-0.042553 -0.457447 0
-0.021277 -0.478723 0
-0.019646 -0.439891 0
-0.002475 -0.461393 0
-0.021277 -0.478723 0
0 -0.5 0
-0.002475 -0.461393 0
0.009599 -0.478226 0
0 -0.5 0
0.03 -0.5 0
0.009599 -0.478226 0
0.029922 -0.474701 0
0.03 -0.5 0
0.06 -0.5 0
0.029922 -0.474701 0
0.057397 -0.471689 0
0.06 -0.5 0
0.09 -0.5 0
0.057397 -0.471689 0
0.08796 -0.470463 0
0.09 -0.5 0
0.12 -0.5 0
0.08796 -0.470463 0
0.119014 -0.4708 0
0.969956 -0.46974 0
1 -0.469697 0
0.969923 -0.439465 0
1 -0.439394 0
0.969923 -0.439465 0
1 -0.439394 0
0.969894 -0.409159 0
1 -0.409091 0
0.969894 -0.409159 0
[...]
POINT_DATA 7480
VECTORS momentum double
0.000577096 -0.000414662 0
9.86149e-05 -0.000419868 0
0.000664674 -0.00130013 0
8.4473e-05 -0.0012249 0
0.000538696 -0.00133817 0
0.000664674 -0.00130013 0
0.000107249 -0.00130463 0
8.4473e-05 -0.0012249 0
0.000778569 -0.00208309 0
0.000538696 -0.00133817 0
3.68103e-05 -0.00210852 0
0.000107249 -0.00130463 0
0.000991137 -0.00200229 0
0.000778569 -0.00208309 0
1.14205e-05 -0.00202276 0
3.68103e-05 -0.00210852 0
0.00117665 -0.00240835 0
0.000991137 -0.00200229 0
5.88606e-05 -0.00230005 0
1.14205e-05 -0.00202276 0
0.00169479 -0.0019247 0
0.00117665 -0.00240835 0
-0.000219448 -0.00165831 0
5.88606e-05 -0.00230005 0
0.00224736 -0.00212933 0
0.00169479 -0.0019247 0
0.00132139 -0.000420831 0
-0.000219448 -0.00165831 0
0.00285708 -0.00209737 0
0.00224736 -0.00212933 0
0.00264632 -0.00154328 0
0.00132139 -0.000420831 0
0.0023129 -0.00234628 0
0.00264632 -0.00154328 0
0.00264542 -0.000803239 0
0.00132139 -0.000420831 0
0.00231739 -0.00148095 0
0.0023129 -0.00234628 0
0.00224083 -2.07416e-05 0
0.00264542 -0.000803239 0
0.00296053 -0.00209713 0
0.00231739 -0.00148095 0
0.00128235 -0.00159766 0
0.00224083 -2.07416e-05 0
0.00173835 -0.00209451 0
0.00296053 -0.00209713 0
0.000889442 -0.00318769 0
0.00128235 -0.00159766 0
-9.76923e-05 -0.00194765 0
0.000889442 -0.00318769 0
-0.000458165 -0.00231188 0
0.00128235 -0.00159766 0
0.000206005 -0.00186646 0
-9.76923e-05 -0.00194765 0
0.000136581 -0.00152649 0
-0.000458165 -0.00231188 0
-6.78345e-06 -0.0012496 0
0.000206005 -0.00186646 0
-6.44781e-05 -0.00146352 0
0.000136581 -0.00152649 0
7.32667e-05 -0.00132543 0
-6.78345e-06 -0.0012496 0
3.10865e-05 -0.00121265 0
-6.44781e-05 -0.00146352 0
-1.56997e-05 -0.000797956 0
7.32667e-05 -0.00132543 0
-1.7789e-05 -0.000868788 0
3.10865e-05 -0.00121265 0
1.05466e-05 -0.000987993 0
-1.56997e-05 -0.000797956 0
8.63772e-06 -0.000950944 0
-1.7789e-05 -0.000868788 0
-1.66425e-06 -0.000415539 0
1.05466e-05 -0.000987993 0
-5.71241e-06 -0.00043953 0
8.63772e-06 -0.000950944 0
-0.000162528 -0.00065345 0
-0.000153533 -0.00178526 0
-0.000149808 -0.000653652 0
-0.000138009 -0.00178603 0
-0.000173707 -0.000653984 0
-0.000167883 -0.00178699 0
-0.000162528 -0.00065345 0
-0.000153533 -0.00178526 0
-0.000180078 -0.000653609 0
-0.000173988 -0.00178922 0
-0.000173707 -0.000653984 0
-0.000167883 -0.00178699 0
-0.000184943 -0.00065272 0
-0.00017952 -0.00179055 0
-0.000180078 -0.000653609 0
-0.000173988 -0.00178922 0
-0.000185414 -0.000652007 0
-0.000179275 -0.00179206 0
-0.000184943 -0.00065272 0
-0.00017952 -0.00179055 0
-0.000183854 -0.000650561 0
-0.000177453 -0.00179313 0
-0.000185414 -0.000652007 0
-0.000179275 -0.00179206 0
-0.000177043 -0.000649785 0
-0.000171242 -0.00179442 0
-0.000183854 -0.000650561 0
-0.000177453 -0.00179313 0
-0.00016808 -0.000648184 0
-0.000162273 -0.00179646 0
-0.000177043 -0.000649785 0
-0.000171242 -0.00179442 0
-0.000153447 -0.000646905 0
-0.000150746 -0.00179871 0
-0.00016808 -0.000648184 0
-0.000162273 -0.00179646 0
-0.000136477 -0.000646065 0
-0.00013587 -0.00180156 0
-0.000153447 -0.000646905 0
-0.000150746 -0.00179871 0
-0.000114691 -0.000644762 0
-0.000118651 -0.00180418 0
-0.000136477 -0.000646065 0
-0.00013587 -0.00180156 0
-9.0485e-05 -0.000643965 0
-0.000103697 -0.00180791 0
-0.000114691 -0.000644762 0
-0.000118651 -0.00180418 0
-9.0485e-05 -0.000643965 0
-6.84145e-05 -0.000644471 0
-0.000103697 -0.00180791 0
-8.68316e-05 -0.00181231 0
-4.67811e-05 -0.000644733 0
-7.25057e-05 -0.00181827 0
-6.84145e-05 -0.000644471 0
-8.68316e-05 -0.00181231 0
-2.94494e-05 -0.000647333 0
-5.91878e-05 -0.00182306 0
-4.67811e-05 -0.000644733 0
-7.25057e-05 -0.00181827 0
-1.99038e-05 -0.000649856 0
-4.22365e-05 -0.00182467 0
-2.94494e-05 -0.000647333 0
-5.91878e-05 -0.00182306 0
-9.14368e-06 -0.000650906 0
-2.70017e-05 -0.0018218 0
-1.99038e-05 -0.000649856 0
-4.22365e-05 -0.00182467 0
-5.98574e-06 -0.000652667 0
-1.44824e-05 -0.00181643 0
-9.14368e-06 -0.000650906 0
-2.70017e-05 -0.0018218 0
-6.83028e-06 -0.000652995 0
-2.49394e-06 -0.00180907 0
-5.98574e-06 -0.000652667 0
-1.44824e-05 -0.00181643 0
1.11065e-06 -0.000651764 0
1.32966e-05 -0.00180051 0
-6.83028e-06 -0.000652995 0
-2.49394e-06 -0.00180907 0
2.6084e-05 -0.000649636 0
3.79185e-05 -0.00179306 0
1.11065e-06 -0.000651764 0
1.32966e-05 -0.00180051 0
7.4791e-05 -0.000649266 0
8.48943e-05 -0.00178254 0
2.6084e-05 -0.000649636 0
3.79185e-05 -0.00179306 0
0.000148803 -0.000648523 0
0.000164061 -0.00177206 0
7.4791e-05 -0.000649266 0
8.48943e-05 -0.00178254 0
0.000264935 -0.000648003 0
0.000280297 -0.00175289 0
0.000148803 -0.000648523 0
0.000164061 -0.00177206 0
0.000428314 -0.000648352 0
0.000444098 -0.00172357 0
0.000264935 -0.000648003 0
0.000280297 -0.00175289 0
0.000640795 -0.00065064 0
0.000667004 -0.00168292 0
0.000428314 -0.000648352 0
0.000444098 -0.00172357 0
0.000911269 -0.000653192 0
0.00095929 -0.00163172 0
0.000640795 -0.00065064 0
0.000667004 -0.00168292 0
0.00126164 -0.00065048 0
0.0013324 -0.00157294 0
0.000911269 -0.000653192 0
0.00095929 -0.00163172 0
0.00169024 -0.000645663 0
0.00177981 -0.00150265 0
0.00126164 -0.00065048 0
0.0013324 -0.00157294 0
0.0022014 -0.000639079 0
0.00231042 -0.001417 0
0.00169024 -0.000645663 0
0.00177981 -0.00150265 0
0.00277247 -0.000631159 0
0.00290015 -0.00131488 0
0.0022014 -0.000639079 0
0.00231042 -0.001417 0
0.00339455 -0.000623087 0
0.0035361 -0.00119077 0
0.00277247 -0.000631159 0
0.00290015 -0.00131488 0
0.00400935 -0.000617685 0
0.00416407 -0.00104196 0
0.00339455 -0.000623087 0
0.0035361 -0.00119077 0
0.00457682 -0.00061282 0
0.0047496 -0.000864146 0
0.00400935 -0.000617685 0
0.00416407 -0.00104196 0
0.00499667 -0.000607079 0
0.00518304 -0.00065308 0
0.00457682 -0.00061282 0
0.0047496 -0.000864146 0
0.00518932 -0.000601885 0
0.00537932 -0.000396462 0
0.00499667 -0.000607079 0
0.00518304 -0.00065308 0
0.0049884 -0.000596582 0
0.00519174 -8.57267e-05 0
0.00518932 -0.000601885 0
0.00537932 -0.000396462 0
0.00429075 -0.000592136 0
0.00450477 0.000289118 0
0.0049884 -0.000596582 0
0.00519174 -8.57267e-05 0
0.00292421 -0.000586367 0
0.00314478 0.000729148 0
0.00429075 -0.000592136 0
0.00450477 0.000289118 0
0.00292421 -0.000586367 0
0.000746175 -0.000579819 0
0.00314478 0.000729148 0
0.000979653 0.00126372 0
-0.00239097 -0.00056262 0
-0.00214381 0.0018798 0
0.000746175 -0.000579819 0
0.000979653 0.00126372 0
-0.0066795 -0.000543895 0
-0.0064297 0.00265185 0
-0.00239097 -0.00056262 0
-0.00214381 0.0018798 0
-0.0122181 -0.00051056 0
-0.0119929 0.00355499 0
-0.0066795 -0.000543895 0
-0.0064297 0.00265185 0
-0.0193553 -0.000478043 0
-0.0191681 0.00469175 0
-0.0122181 -0.00051056 0
-0.0119929 0.00355499 0
-0.0280208 -0.00042498 0
-0.027934 0.00600426 0
-0.0193553 -0.000478043 0
-0.0191681 0.00469175 0
-0.0280208 -0.00042498 0
-0.038866 -0.000378185 0
-0.027934 0.00600426 0
-0.0389122 0.00769309 0
-0.038866 -0.000378185 0
-0.0515335 -0.000314262 0
-0.0389122 0.00769309 0
-0.0517804 0.00963696 0
-0.0671389 -0.000261965 0
-0.0676173 0.0119724 0
-0.0515335 -0.000314262 0
-0.0517804 0.00963696 0
-0.0847337 -0.000183746 0
-0.0855442 0.014596 0
-0.0671389 -0.000261965 0
-0.0676173 0.0119724 0
-0.105961 -0.000150998 0
-0.107218 0.0173237 0
-0.0847337 -0.000183746 0
-0.0855442 0.014596 0
-0.12866 -0.000118087 0
-0.130554 0.0197374 0
-0.105961 -0.000150998 0
-0.107218 0.0173237 0
-0.155135 -0.000185293 0
-0.157478 0.0217685 0
-0.12866 -0.000118087 0
-0.130554 0.0197374 0
-0.182057 -8.85753e-05 0
-0.184885 0.0234507 0
-0.155135 -0.000185293 0
-0.157478 0.0217685 0
-0.21319 -0.000208278 0
-0.216336 0.0253803 0
-0.182057 -8.85753e-05 0
-0.184885 0.0234507 0
-0.244813 -0.000209779 0
-0.2481 0.0277798 0
-0.21319 -0.000208278 0
-0.216336 0.0253803 0
-0.282644 -0.000164018 0
-0.283999 0.0310365 0
-0.244813 -0.000209779 0
-0.2481 0.0277798 0
-0.320544 0.000532698 0
-0.323668 0.0347973 0
-0.282644 -0.000164018 0
-0.283999 0.0310365 0
-0.320544 0.000532698 0
-0.362298 -0.000655826 0
-0.323668 0.0347973 0
-0.360425 0.0296602 0
-0.362298 -0.000655826 0
-0.380411 0.00030458 0
-0.360425 0.0296602 0
-0.394722 0.0090807 0
-0.357948 -0.000266265 0
-0.350442 -0.0328605 0
-0.381366 -0.00150009 0
-0.389522 -0.0266317 0
-4.29798e-06 -0.000415621 0
-5.792e-06 -0.000987093 0
-1.66425e-06 -0.000415539 0
1.05466e-05 -0.000987993 0
-4.29798e-06 -0.000415621 0
-2.53234e-05 -0.000408549 0
-5.792e-06 -0.000987093 0
-1.98147e-05 -0.000992253 0
-4.83074e-05 -0.000412442 0
-4.83568e-05 -0.000978744 0
-2.53234e-05 -0.000408549 0
-1.98147e-05 -0.000992253 0
-4.83074e-05 -0.000412442 0
-7.41415e-05 -0.000410904 0
-4.83568e-05 -0.000978744 0
-7.65966e-05 -0.000975704 0
-7.41415e-05 -0.000410904 0
-0.000100562 -0.000415153 0
-7.65966e-05 -0.000975704 0
-0.000107406 -0.000968698 0
-0.000100562 -0.000415153 0
-0.000130421 -0.00041509 0
-0.000107406 -0.000968698 0
-0.000133705 -0.000970172 0
-0.000130421 -0.00041509 0
-0.000154902 -0.000416495 0
-0.000133705 -0.000970172 0
-0.00016308 -0.000970544 0
-0.000154902 -0.000416495 0
-0.000179506 -0.000417959 0
-0.00016308 -0.000970544 0
-0.00019004 -0.000974178 0
-0.000179506 -0.000417959 0
-0.000202763 -0.000420742 0
-0.00019004 -0.000974178 0
-0.000212034 -0.000975855 0
-0.000202763 -0.000420742 0
-0.000224824 -0.000422296 0
-0.000212034 -0.000975855 0
-0.000230561 -0.000979487 0
-0.000224824 -0.000422296 0
-0.000242116 -0.000423723 0
-0.000230561 -0.000979487 0
-0.000245799 -0.000981747 0
-0.000242116 -0.000423723 0
-0.000257095 -0.000424684 0
-0.000245799 -0.000981747 0
-0.000258304 -0.000984692 0
-0.000257095 -0.000424684 0
-0.000267677 -0.000425199 0
-0.000258304 -0.000984692 0
-0.000266745 -0.000986873 0
-0.000267677 -0.000425199 0
-0.000276069 -0.000425473 0
-0.000266745 -0.000986873 0
-0.000273689 -0.000989529 0
-0.000276069 -0.000425473 0
-0.000279892 -0.00042571 0
-0.000273689 -0.000989529 0
-0.000277645 -0.00099219 0
-0.000279892 -0.00042571 0
-0.000280465 -0.000425889 0
-0.000277645 -0.00099219 0
-0.000281557 -0.000995647 0
-0.000280465 -0.000425889 0
-0.000279906 -0.000426699 0
-0.000281557 -0.000995647 0
-0.000282928 -0.000998648 0
-0.000279906 -0.000426699 0
-0.000279927 -0.000427608 0
-0.000282928 -0.000998648 0
-0.000282307 -0.00100225 0
-0.000279927 -0.000427608 0
-0.000277889 -0.000428626 0
-0.000282307 -0.00100225 0
-0.000279434 -0.00100603 0
-0.000277889 -0.000428626 0
-0.000276764 -0.000429427 0
-0.000279434 -0.00100603 0
-0.000276708 -0.00100983 0
-0.000276764 -0.000429427 0
-0.000272255 -0.000429788 0
-0.000276708 -0.00100983 0
-0.000271764 -0.00101367 0
-0.000272255 -0.000429788 0
-0.000267016 -0.000430311 0
-0.000271764 -0.00101367 0
-0.000266589 -0.00101687 0
-0.000267016 -0.000430311 0
-0.000258338 -0.000430402 0
-0.000266589 -0.00101687 0
-0.000258224 -0.00101922 0
-0.000258338 -0.000430402 0
-0.000250503 -0.000430375 0
-0.000258224 -0.00101922 0
-0.0002512 -0.00102025 0
0.223859 -0.217334 0
0.14456 -0.140436 0
0.247138 -0.0999055 0
0.165837 -0.0905298 0
0.14456 -0.140436 0
0.104474 -0.103839 0
0.165837 -0.0905298 0
0.119647 -0.0761476 0
0.104474 -0.103839 0
0.0817139 -0.0814025 0
0.119647 -0.0761476 0
0.091454 -0.0639778 0
0.0817139 -0.0814025 0
0.0662929 -0.0662943 0
0.091454 -0.0639778 0
0.072999 -0.0544054 0
0.0556735 -0.0558107 0
0.0602553 -0.0472075 0
0.0662929 -0.0662943 0
0.072999 -0.0544054 0
0.0478096 -0.0480384 0
0.0510832 -0.0415965 0
0.0556735 -0.0558107 0
0.0602553 -0.0472075 0
0.0478096 -0.0480384 0
0.0419128 -0.0422072 0
0.0510832 -0.0415965 0
0.0442385 -0.0372006 0
0.0419128 -0.0422072 0
0.0372799 -0.0376158 0
0.0442385 -0.0372006 0
0.0389663 -0.0336314 0
0.0372799 -0.0376158 0
0.0335347 -0.0338981 0
0.0389663 -0.0336314 0
0.0347397 -0.0306477 0
0.0335347 -0.0338981 0
0.0303897 -0.030771 0
0.0347397 -0.0306477 0
0.0312346 -0.0280743 0
0.0303897 -0.030771 0
0.0276331 -0.0280262 0
0.0312346 -0.0280743 0
0.0281971 -0.0257438 0
0.0276331 -0.0280262 0
0.0251521 -0.0255539 0
0.0281971 -0.0257438 0
0.0254975 -0.0236058 0
0.0251521 -0.0255539 0
0.0228299 -0.0232384 0
0.0254975 -0.0236058 0
0.0229895 -0.0215621 0
0.0206559 -0.0210621 0
0.0206629 -0.0196179 0
0.0228299 -0.0232384 0
0.0229895 -0.0215621 0
0.0185532 -0.0189568 0
0.0183958 -0.0177078 0
0.0206559 -0.0210621 0
0.0206629 -0.0196179 0
0.0185532 -0.0189568 0
0.016575 -0.0169888 0
0.0183958 -0.0177078 0
0.0162899 -0.0158797 0
0.0146419 -0.0150741 0
0.0142524 -0.014096 0
0.016575 -0.0169888 0
0.0162899 -0.0158797 0
0.012856 -0.0133203 0
0.0124255 -0.0124352 0
0.0146419 -0.0150741 0
0.0142524 -0.014096 0
0.012856 -0.0133203 0
0.0111162 -0.0115862 0
0.0124255 -0.0124352 0
0.0106274 -0.0108548 0
0.00961834 -0.010081 0
0.00903908 -0.00945865 0
0.0111162 -0.0115862 0
0.0106274 -0.0108548 0
0.00961834 -0.010081 0
0.00815887 -0.00863121 0
0.00903908 -0.00945865 0
0.00750953 -0.00805134 0
0.00815887 -0.00863121 0
0.00689738 -0.00737918 0
0.00750953 -0.00805134 0
0.00627452 -0.00685205 0
0.00689738 -0.00737918 0
0.00555408 -0.00604372 0
0.00627452 -0.00685205 0
0.00502074 -0.00545167 0
0.00555408 -0.00604372 0
0.00422043 -0.00463154 0
0.00502074 -0.00545167 0
0.00414667 -0.00448687 0
0.00422043 -0.00463154 0
0.00282886 -0.00318249 0
0.00414667 -0.00448687 0
0.00301156 -0.00279042 0
0.00282886 -0.00318249 0
0.00127971 -0.000965574 0
0.00301156 -0.00279042 0
0.00240054 -0.00223311 0
0.00127971 -0.000965574 0
0.00243795 -0.000270832 0
0.00240054 -0.00223311 0
0.00246359 -0.00170077 0
0.00243795 -0.000270832 0
0.00204083 -0.000411397 0
0.00246359 -0.00170077 0
0.00172699 -0.00147415 0
0.00204083 -0.000411397 0
0.00151695 -0.000475899 0
0.00172699 -0.00147415 0
0.00147097 -0.00129046 0
0.00151695 -0.000475899 0
0.000577096 -0.000414662 0
0.00147097 -0.00129046 0
0.000664674 -0.00130013 0
-0.000258224 -0.00101922 0
-0.0002512 -0.00102025 0
-0.00025894 -0.00078344 0
-0.000252754 -0.000787206 0
-0.00025894 -0.00078344 0
-0.000252754 -0.000787206 0
-0.000263663 -0.00126393 0
-0.000258232 -0.00126714 0
-0.000263663 -0.00126393 0
-0.000258232 -0.00126714 0
-0.000271778 -0.00111966 0
-0.000265806 -0.00112435 0
-0.000271778 -0.00111966 0
-0.000265806 -0.00112435 0
-0.000281594 -0.00150687 0
-0.000277698 -0.00151273 0
-0.000281594 -0.00150687 0
-0.000277698 -0.00151273 0
-0.000294872 -0.00142305 0
-0.000290265 -0.00142946 0
-0.000294872 -0.00142305 0
-0.000290265 -0.00142946 0
-0.000308523 -0.00172801 0
-0.000305407 -0.00173576 0
-0.000325941 -0.0016817 0
-0.000308523 -0.00172801 0
-0.000322596 -0.0016903 0
-0.000305407 -0.00173576 0
-0.000325941 -0.0016817 0
-0.000322596 -0.0016903 0
-0.000345115 -0.00191321 0
-0.000342626 -0.00192284 0
-0.000345115 -0.00191321 0
-0.000342626 -0.00192284 0
-0.000368144 -0.00188808 0
-0.000366108 -0.00189923 0
-0.000368144 -0.00188808 0
-0.000366108 -0.00189923 0
-0.000395229 -0.00205365 0
-0.000394653 -0.00206596 0
-0.000395229 -0.00205365 0
-0.000394653 -0.00206596 0
-0.000427094 -0.00203947 0
-0.000428552 -0.00205395 0
-0.000427094 -0.00203947 0
-0.000428552 -0.00205395 0
-0.00046573 -0.00214429 0
-0.00047252 -0.00216088 0
-0.00046573 -0.00214429 0
-0.00047252 -0.00216088 0
-0.000510181 -0.00213273 0
-0.000524691 -0.00215157 0
-0.000510181 -0.00213273 0
-0.000524691 -0.00215157 0
-0.000561315 -0.00217564 0
-0.000588857 -0.00219671 0
-0.000561315 -0.00217564 0
-0.000588857 -0.00219671 0
-0.000614208 -0.00215623 0
-0.000659256 -0.00217768 0
-0.000614208 -0.00215623 0
-0.000659256 -0.00217768 0
-0.000663837 -0.00212897 0
-0.000730217 -0.00214855 0
-0.000663837 -0.00212897 0
-0.000730217 -0.00214855 0
-0.000698474 -0.00209468 0
-0.000785814 -0.00210767 0
-0.000698474 -0.00209468 0
-0.000785814 -0.00210767 0
-0.000707943 -0.00199672 0
-0.000808697 -0.00199903 0
-0.000707943 -0.00199672 0
-0.000808697 -0.00199903 0
-0.000684465 -0.00196958 0
-0.000783681 -0.00195845 0
-0.000684465 -0.00196958 0
-0.000783681 -0.00195845 0
-0.000630335 -0.00182969 0
-0.0007134 -0.00180944 0
-0.000630335 -0.00182969 0
-0.0007134 -0.00180944 0
-0.000556759 -0.00185958 0
-0.000617036 -0.00183416 0
-0.000556759 -0.00185958 0
-0.000617036 -0.00183416 0
-0.000475284 -0.0016973 0
-0.000512885 -0.00167281 0
-0.000475284 -0.0016973 0
-0.000512885 -0.00167281 0
-0.000400898 -0.00180986 0
-0.000419453 -0.00178743 0
-0.000400898 -0.00180986 0
-0.000419453 -0.00178743 0
-0.000331644 -0.00159757 0
-0.000336719 -0.00158144 0
-0.000331644 -0.00159757 0
-0.000336719 -0.00158144 0
-0.000283839 -0.00179557 0
-0.000282158 -0.00178149 0
-0.000283839 -0.00179557 0
-0.000282158 -0.00178149 0
-0.000235411 -0.00148105 0
-0.00022738 -0.0014702 0
-0.000235411 -0.00148105 0
-0.00022738 -0.0014702 0
-0.000203267 -0.0017919 0
-0.000194027 -0.00178329 0
-0.000203267 -0.0017919 0
-0.000194027 -0.00178329 0
-0.000168621 -0.00130738 0
-0.000155313 -0.00130247 0
-0.000168621 -0.00130738 0
-0.000155313 -0.00130247 0
-0.000159375 -0.00178506 0
-0.000145843 -0.00178401 0
-0.000159375 -0.00178506 0
-0.000145843 -0.00178401 0
-0.000151441 -0.00104103 0
-0.000137354 -0.0010398 0
-0.000151441 -0.00104103 0
-0.000137354 -0.0010398 0
-0.000153533 -0.00178526 0
-0.000138009 -0.00178603 0
0.247138 -0.0999055 0
0.165837 -0.0905298 0
0.208989 -0.00804979 0
0.158059 -0.0329552 0
0.165837 -0.0905298 0
0.119647 -0.0761476 0
0.158059 -0.0329552 0
0.119352 -0.0399847 0
0.119647 -0.0761476 0
0.091454 -0.0639778 0
0.119352 -0.0399847 0
0.0933109 -0.0401655 0
0.091454 -0.0639778 0
0.072999 -0.0544054 0
0.0933109 -0.0401655 0
0.0752347 -0.0379239 0
0.0602553 -0.0472075 0
0.0623496 -0.0351568 0
0.072999 -0.0544054 0
0.0752347 -0.0379239 0
0.0510832 -0.0415965 0
0.0528911 -0.0325234 0
0.0602553 -0.0472075 0
0.0623496 -0.0351568 0
0.0510832 -0.0415965 0
0.0442385 -0.0372006 0
0.0528911 -0.0325234 0
0.0457489 -0.0300609 0
0.0442385 -0.0372006 0
0.0389663 -0.0336314 0
0.0457489 -0.0300609 0
0.0401766 -0.0278813 0
0.0389663 -0.0336314 0
0.0347397 -0.0306477 0
0.0401766 -0.0278813 0
0.0357175 -0.0258824 0
0.0347397 -0.0306477 0
0.0312346 -0.0280743 0
0.0357175 -0.0258824 0
0.0319982 -0.0240277 0
0.0312346 -0.0280743 0
0.0281971 -0.0257438 0
0.0319982 -0.0240277 0
0.0287969 -0.0222568 0
0.0281971 -0.0257438 0
0.0254975 -0.0236058 0
0.0287969 -0.0222568 0
0.025915 -0.0205536 0
0.0254975 -0.0236058 0
0.0229895 -0.0215621 0
0.025915 -0.0205536 0
0.0232778 -0.0188727 0
0.0206629 -0.0196179 0
0.0208205 -0.0171915 0
0.0229895 -0.0215621 0
0.0232778 -0.0188727 0
0.0183958 -0.0177078 0
0.0184971 -0.0155274 0
0.0206629 -0.0196179 0
0.0208205 -0.0171915 0
0.0183958 -0.0177078 0
0.0162899 -0.0158797 0
0.0184971 -0.0155274 0
0.0163073 -0.0139044 0
0.0142524 -0.014096 0
0.0141687 -0.0123717 0
0.0162899 -0.0158797 0
0.0163073 -0.0139044 0
0.0124255 -0.0124352 0
0.0122256 -0.0108939 0
0.0142524 -0.014096 0
0.0141687 -0.0123717 0
0.0124255 -0.0124352 0
0.0106274 -0.0108548 0
0.0122256 -0.0108939 0
0.0103101 -0.00941326 0
0.00903908 -0.00945865 0
0.00866851 -0.0080574 0
0.0106274 -0.0108548 0
0.0103101 -0.00941326 0
0.00903908 -0.00945865 0
0.00750953 -0.00805134 0
0.00866851 -0.0080574 0
0.00705319 -0.00690132 0
0.00750953 -0.00805134 0
0.00627452 -0.00685205 0
0.00705319 -0.00690132 0
0.00592789 -0.00572401 0
0.00627452 -0.00685205 0
0.00502074 -0.00545167 0
0.00592789 -0.00572401 0
0.00452551 -0.00464048 0
0.00502074 -0.00545167 0
0.00414667 -0.00448687 0
0.00452551 -0.00464048 0
0.00384107 -0.0035491 0
0.00297189 -0.00176894 0
0.00246359 -0.00170077 0
0.00209857 -0.00194921 0
0.00172699 -0.00147415 0
0.00209857 -0.00194921 0
0.00172699 -0.00147415 0
0.00151578 -0.00175023 0
0.00147097 -0.00129046 0
0.00151578 -0.00175023 0
0.00147097 -0.00129046 0
0.000538696 -0.00133817 0
0.000664674 -0.00130013 0
0.00173272 -0.00256021 0
0.00151578 -0.00175023 0
0.000778569 -0.00208309 0
0.000538696 -0.00133817 0
0.00195933 -0.00231204 0
0.00173272 -0.00256021 0
0.000991137 -0.00200229 0
0.000778569 -0.00208309 0
0.0022594 -0.00264164 0
0.00195933 -0.00231204 0
0.00117665 -0.00240835 0
0.000991137 -0.00200229 0
0.0026896 -0.00253891 0
0.0022594 -0.00264164 0
0.00169479 -0.0019247 0
0.00117665 -0.00240835 0
0.00323018 -0.00286233 0
0.0026896 -0.00253891 0
0.00224736 -0.00212933 0
0.00169479 -0.0019247 0