# vtk DataFile Version 3.0
#This file was generated by the deal.II library on 2016/12/20 at 10:57:14
ASCII
DATASET UNSTRUCTURED_GRID

POINTS 7588 double
0.12 -0.5 0
0.15 -0.5 0
0.119014 -0.4708 0
0.15 -0.471429 0
0.11755 -0.441479 0
0.119014 -0.4708 0
0.15 -0.442857 0
0.15 -0.471429 0
0.117242 -0.412206 0
0.11755 -0.441479 0
0.15 -0.414286 0
0.15 -0.442857 0
0.118129 -0.383064 0
0.117242 -0.412206 0
0.15 -0.385714 0
0.15 -0.414286 0
0.12021 -0.354337 0
0.118129 -0.383064 0
0.15 -0.357143 0
0.15 -0.385714 0
0.121793 -0.32584 0
0.12021 -0.354337 0
0.15 -0.328571 0
0.15 -0.357143 0
0.122717 -0.296869 0
0.121793 -0.32584 0
0.15 -0.3 0
0.15 -0.328571 0
0.123759 -0.266752 0
0.122717 -0.296869 0
0.153091 -0.267708 0
0.15 -0.3 0
0.18456 -0.26795 0
0.153091 -0.267708 0
0.183333 -0.3 0
0.15 -0.3 0
0.216606 -0.268111 0
0.18456 -0.26795 0
0.216667 -0.3 0
0.183333 -0.3 0
0.24835 -0.26841 0
0.216606 -0.268111 0
0.25 -0.3 0
0.216667 -0.3 0
0.278782 -0.268564 0
0.24835 -0.26841 0
0.279437 -0.298917 0
0.25 -0.3 0
0.279638 -0.328111 0
0.279437 -0.298917 0
0.25 -0.328571 0
0.25 -0.3 0
0.27971 -0.356801 0
0.279638 -0.328111 0
0.25 -0.357143 0
0.25 -0.328571 0
0.279677 -0.385395 0
0.27971 -0.356801 0
0.25 -0.385714 0
0.25 -0.357143 0
0.279641 -0.413938 0
0.279677 -0.385395 0
0.25 -0.414286 0
0.25 -0.385714 0
0.279666 -0.442534 0
0.279641 -0.413938 0
0.25 -0.442857 0
0.25 -0.414286 0
0.279811 -0.471266 0
0.279666 -0.442534 0
0.25 -0.471429 0
0.25 -0.442857 0
0.28 -0.5 0
0.279811 -0.471266 0
0.25 -0.5 0
0.25 -0.471429 0
0.970149 0.5 0
0.970096 0.46978 0
1 0.5 0
1 0.469697 0
0.940299 0.5 0
0.940231 0.46984 0
0.970149 0.5 0
0.970096 0.46978 0
0.910448 0.5 0
0.910371 0.469856 0
0.940299 0.5 0
0.940231 0.46984 0
0.880597 0.5 0
0.880527 0.469909 0
0.910448 0.5 0
0.910371 0.469856 0
0.850746 0.5 0
0.850684 0.469926 0
0.880597 0.5 0
0.880527 0.469909 0
0.820896 0.5 0
0.820842 0.469978 0
0.850746 0.5 0
0.850684 0.469926 0
0.791045 0.5 0
0.791001 0.470016 0
0.820896 0.5 0
0.820842 0.469978 0
0.761194 0.5 0
0.761159 0.470055 0
0.791045 0.5 0
0.791001 0.470016 0
0.731343 0.5 0
0.731316 0.470091 0
0.761194 0.5 0
0.761159 0.470055 0
0.701493 0.5 0
0.701472 0.470118 0
0.731343 0.5 0
0.731316 0.470091 0
0.671642 0.5 0
0.671627 0.470134 0
0.701493 0.5 0
0.701472 0.470118 0
0.641791 0.5 0
0.64178 0.470142 0
0.671642 0.5 0
0.671627 0.470134 0
0.641791 0.5 0
0.61194 0.5 0
0.64178 0.470142 0
0.611934 0.470065 0
0.58209 0.5 0
0.582089 0.470002 0
0.61194 0.5 0
0.611934 0.470065 0
0.552239 0.5 0
0.552248 0.469853 0
0.58209 0.5 0
0.582089 0.470002 0
0.522388 0.5 0
0.522413 0.469718 0
0.552239 0.5 0
0.552248 0.469853 0
0.492537 0.5 0
0.492577 0.469656 0
0.522388 0.5 0
0.522413 0.469718 0
0.462687 0.5 0
0.462743 0.469571 0
0.492537 0.5 0
0.492577 0.469656 0
0.432836 0.5 0
0.432895 0.46963 0
0.462687 0.5 0
0.462743 0.469571 0
0.402985 0.5 0
0.403046 0.469669 0
0.432836 0.5 0
0.432895 0.46963 0
0.373134 0.5 0
0.373191 0.469745 0
0.402985 0.5 0
0.403046 0.469669 0
0.343284 0.5 0
0.343335 0.469723 0
0.373134 0.5 0
0.373191 0.469745 0
0.313433 0.5 0
0.313478 0.469741 0
0.343284 0.5 0
0.343335 0.469723 0
0.283582 0.5 0
0.283622 0.469783 0
0.313433 0.5 0
0.313478 0.469741 0
0.253731 0.5 0
0.253768 0.469742 0
0.283582 0.5 0
0.283622 0.469783 0
0.223881 0.5 0
0.223918 0.469737 0
0.253731 0.5 0
0.253768 0.469742 0
0.19403 0.5 0
0.194064 0.46981 0
0.223881 0.5 0
0.223918 0.469737 0
0.164179 0.5 0
0.16421 0.469881 0
0.19403 0.5 0
0.194064 0.46981 0
0.134328 0.5 0
0.134355 0.46994 0
0.164179 0.5 0
0.16421 0.469881 0
0.104478 0.5 0
0.1045 0.469997 0
0.134328 0.5 0
0.134355 0.46994 0
0.074627 0.5 0
0.074645 0.470051 0
0.104478 0.5 0
0.1045 0.469997 0
0.044776 0.5 0
0.04479 0.470093 0
0.074627 0.5 0
0.074645 0.470051 0
0.014925 0.5 0
0.014935 0.47012 0
0.044776 0.5 0
0.04479 0.470093 0
-0.014925 0.5 0
-0.014918 0.470135 0
0.014925 0.5 0
0.014935 0.47012 0
-0.044776 0.5 0
-0.044771 0.470143 0
-0.014925 0.5 0
-0.014918 0.470135 0
-0.074627 0.5 0
-0.074623 0.470146 0
-0.044776 0.5 0
-0.044771 0.470143 0
-0.104478 0.5 0
-0.104496 0.469979 0
-0.074627 0.5 0
-0.074623 0.470146 0
-0.134328 0.5 0
-0.134359 0.469935 0
-0.104478 0.5 0
-0.104496 0.469979 0
-0.164179 0.5 0
-0.164225 0.469839 0
-0.134328 0.5 0
-0.134359 0.469935 0
-0.164179 0.5 0
-0.19403 0.5 0
-0.164225 0.469839 0
-0.194083 0.469797 0
-0.223881 0.5 0
-0.22394 0.469753 0
-0.19403 0.5 0
-0.194083 0.469797 0
-0.253731 0.5 0
-0.253798 0.469819 0
-0.223881 0.5 0
-0.22394 0.469753 0
-0.283582 0.5 0
-0.283647 0.470019 0
-0.253731 0.5 0
-0.253798 0.469819 0
-0.313433 0.5 0
-0.313491 0.470151 0
-0.283582 0.5 0
-0.283647 0.470019 0
-0.343284 0.5 0
-0.343348 0.470381 0
-0.313433 0.5 0
-0.313491 0.470151 0
-0.343284 0.5 0
-0.373134 0.5 0
-0.343348 0.470381 0
-0.373195 0.470395 0
-0.373134 0.5 0
-0.402985 0.5 0
-0.373195 0.470395 0
-0.403049 0.470404 0
-0.432836 0.5 0
-0.432937 0.470297 0
-0.402985 0.5 0
-0.403049 0.470404 0
-0.462687 0.5 0
-0.462848 0.469995 0
-0.432836 0.5 0
-0.432937 0.470297 0
-0.492537 0.5 0
-0.492807 0.469765 0
-0.462687 0.5 0
-0.462848 0.469995 0
-0.522388 0.5 0
-0.52276 0.46958 0
-0.492537 0.5 0
-0.492807 0.469765 0
-0.552239 0.5 0
-0.55273 0.469652 0
-0.522388 0.5 0
-0.52276 0.46958 0
-0.58209 0.5 0
-0.582662 0.469731 0
-0.552239 0.5 0
-0.55273 0.469652 0
-0.61194 0.5 0
-0.612594 0.469999 0
-0.58209 0.5 0
-0.582662 0.469731 0
-0.641791 0.5 0
-0.642647 0.470419 0
-0.61194 0.5 0
-0.612594 0.469999 0
-0.671642 0.5 0
-0.672638 0.470543 0
-0.641791 0.5 0
-0.642647 0.470419 0
-0.701493 0.5 0
-0.702968 0.4698 0
-0.671642 0.5 0
-0.672638 0.470543 0
-0.701493 0.5 0
-0.731343 0.5 0
-0.702968 0.4698 0
-0.733232 0.468149 0
-0.731343 0.5 0
-0.761194 0.5 0
-0.733232 0.468149 0
-0.765399 0.466448 0
-0.791045 0.5 0
-0.795702 0.469563 0
-0.761194 0.5 0
-0.765399 0.466448 0
-0.820896 0.5 0
-0.822797 0.47207 0
-0.791045 0.5 0
-0.795702 0.469563 0
0.31 -0.5 0
0.309694 -0.471123 0
0.28 -0.5 0
0.279811 -0.471266 0
0.31 -0.5 0
0.34 -0.5 0
0.309694 -0.471123 0
0.339686 -0.471033 0
0.37 -0.5 0
0.369721 -0.471055 0
0.34 -0.5 0
0.339686 -0.471033 0
0.37 -0.5 0
0.4 -0.5 0
0.369721 -0.471055 0
0.399756 -0.470957 0
0.4 -0.5 0
0.43 -0.5 0
0.399756 -0.470957 0
0.429805 -0.470822 0
0.43 -0.5 0
0.46 -0.5 0
0.429805 -0.470822 0
0.459835 -0.470712 0
0.46 -0.5 0
0.49 -0.5 0
0.459835 -0.470712 0
0.489873 -0.470554 0
0.49 -0.5 0
0.52 -0.5 0
0.489873 -0.470554 0
0.519906 -0.470379 0
0.52 -0.5 0
0.55 -0.5 0
0.519906 -0.470379 0
0.54993 -0.470248 0
0.55 -0.5 0
0.58 -0.5 0
0.54993 -0.470248 0
0.579948 -0.470155 0
0.58 -0.5 0
0.61 -0.5 0
0.579948 -0.470155 0
0.609962 -0.470091 0
0.61 -0.5 0
0.64 -0.5 0
0.609962 -0.470091 0
0.639972 -0.47005 0
0.64 -0.5 0
0.67 -0.5 0
0.639972 -0.47005 0
0.66998 -0.470026 0
0.67 -0.5 0
0.7 -0.5 0
0.66998 -0.470026 0
0.699986 -0.470013 0
0.7 -0.5 0
0.73 -0.5 0
0.699986 -0.470013 0
0.72999 -0.470006 0
0.73 -0.5 0
0.76 -0.5 0
0.72999 -0.470006 0
0.759994 -0.470003 0
0.76 -0.5 0
0.79 -0.5 0
0.759994 -0.470003 0
0.78998 -0.469916 0
0.79 -0.5 0
0.82 -0.5 0
0.78998 -0.469916 0
0.819956 -0.469877 0
0.82 -0.5 0
0.85 -0.5 0
0.819956 -0.469877 0
0.849929 -0.469833 0
0.85 -0.5 0
0.88 -0.5 0
0.849929 -0.469833 0
0.879924 -0.469805 0
0.88 -0.5 0
0.91 -0.5 0
0.879924 -0.469805 0
0.909913 -0.469792 0
0.91 -0.5 0
0.94 -0.5 0
0.909913 -0.469792 0
0.939922 -0.469775 0
0.94 -0.5 0
0.97 -0.5 0
0.939922 -0.469775 0
0.969956 -0.46974 0
0.97 -0.5 0
1 -0.5 0
0.969956 -0.46974 0
1 -0.469697 0
-0.489362 -0.010638 0
-0.468085 -0.031915 0
-0.467791 0.011178 0
-0.446536 -0.010172 0
-0.446809 -0.053191 0
-0.42524 -0.031466 0
-0.468085 -0.031915 0
-0.446536 -0.010172 0
-0.425532 -0.074468 0
-0.404012 -0.052824 0
-0.446809 -0.053191 0
-0.42524 -0.031466 0
-0.425532 -0.074468 0
-0.404255 -0.095745 0
-0.404012 -0.052824 0
-0.382783 -0.074175 0
-0.404255 -0.095745 0
-0.382979 -0.117021 0
-0.382783 -0.074175 0
-0.361545 -0.095511 0
-0.382979 -0.117021 0
-0.361702 -0.138298 0
-0.361545 -0.095511 0
-0.340288 -0.116831 0
-0.361702 -0.138298 0
-0.340426 -0.159574 0
-0.340288 -0.116831 0
-0.319034 -0.138159 0
-0.340426 -0.159574 0
-0.319149 -0.180851 0
-0.319034 -0.138159 0
-0.297766 -0.159484 0
-0.319149 -0.180851 0
-0.297872 -0.202128 0
-0.297766 -0.159484 0
-0.276489 -0.180797 0
-0.297872 -0.202128 0
-0.276596 -0.223404 0
-0.276489 -0.180797 0
-0.255087 -0.202105 0
-0.255319 -0.244681 0
-0.233674 -0.223466 0
-0.276596 -0.223404 0
-0.255087 -0.202105 0
-0.234043 -0.265957 0
-0.212119 -0.244916 0
-0.255319 -0.244681 0
-0.233674 -0.223466 0
-0.234043 -0.265957 0
-0.212766 -0.287234 0
-0.212119 -0.244916 0
-0.190657 -0.266392 0
-0.191489 -0.308511 0
-0.169261 -0.287934 0
-0.212766 -0.287234 0
-0.190657 -0.266392 0
-0.170213 -0.329787 0
-0.147854 -0.309624 0
-0.191489 -0.308511 0
-0.169261 -0.287934 0
-0.170213 -0.329787 0
-0.148936 -0.351064 0
-0.147854 -0.309624 0
-0.126431 -0.331364 0
-0.12766 -0.37234 0
-0.105256 -0.353368 0
-0.148936 -0.351064 0
-0.126431 -0.331364 0
-0.12766 -0.37234 0
-0.106383 -0.393617 0
-0.105256 -0.353368 0
-0.083924 -0.375263 0
-0.106383 -0.393617 0
-0.085106 -0.414894 0
-0.083924 -0.375263 0
-0.062097 -0.396824 0
-0.085106 -0.414894 0
-0.06383 -0.43617 0
-0.062097 -0.396824 0
-0.040132 -0.418076 0
-0.06383 -0.43617 0
-0.042553 -0.457447 0
-0.040132 -0.418076 0
-0.019646 -0.439891 0
-0.042553 -0.457447 0
-0.021277 -0.478723 0
-0.019646 -0.439891 0
-0.002475 -0.461393 0
-0.021277 -0.478723 0
0 -0.5 0
-0.002475 -0.461393 0
0.009599 -0.478226 0
0 -0.5 0
0.03 -0.5 0
0.009599 -0.478226 0
0.029922 -0.474701 0
0.03 -0.5 0
0.06 -0.5 0
0.029922 -0.474701 0
0.057397 -0.471689 0
0.06 -0.5 0
0.09 -0.5 0
0.057397 -0.471689 0
0.08796 -0.470463 0
0.09 -0.5 0
0.12 -0.5 0
0.08796 -0.470463 0
0.119014 -0.4708 0
0.969956 -0.46974 0
1 -0.469697 0
0.969923 -0.439465 0
1 -0.439394 0
0.969923 -0.439465 0
1 -0.439394 0
0.969894 -0.409159 0
1 -0.409091 0
0.969894 -0.409159 0
1 -0.409091 0
0.969889 -0.37886 0
1 -0.378788 0
0.969889 -0.37886 0
1 -0.378788 0
0.969858 -0.348548 0
1 -0.348485 0
0.969858 -0.348548 0
1 -0.348485 0
0.969843 -0.318237 0
[...]
POINT_DATA 7588
VECTORS momentum double
0.00160394 -0.000341645 0
0.000123204 -0.000268038 0
0.00188671 -0.00150968 0
0.000145751 -0.00152183 0
0.00178359 -0.00143962 0
0.00188671 -0.00150968 0
0.000105102 -0.00108818 0
0.000145751 -0.00152183 0
0.0024434 -0.00211468 0
0.00178359 -0.00143962 0
0.000173596 -0.00237284 0
0.000105102 -0.00108818 0
0.00258329 -0.00140215 0
0.0024434 -0.00211468 0
-0.000140423 -0.000779342 0
0.000173596 -0.00237284 0
0.00360109 -0.000917246 0
0.00258329 -0.00140215 0
0.000609271 -0.0017074 0
-0.000140423 -0.000779342 0
0.00383905 0.0013942 0
0.00360109 -0.000917246 0
-0.00207402 0.00274253 0
0.000609271 -0.0017074 0
0.00977664 0.00447027 0
0.00383905 0.0013942 0
0.00776513 0.00312496 0
-0.00207402 0.00274253 0
0.0148375 0.00115405 0
0.00977664 0.00447027 0
0.0183368 0.000775483 0
0.00776513 0.00312496 0
0.0149839 -0.0052601 0
0.0183368 0.000775483 0
0.0153378 -0.00307161 0
0.00776513 0.00312496 0
0.0148024 0.000335437 0
0.0149839 -0.0052601 0
0.0149913 0.00232597 0
0.0153378 -0.00307161 0
0.0180353 -0.00615761 0
0.0148024 0.000335437 0
0.00782432 -0.00592831 0
0.0149913 0.00232597 0
0.0119434 -0.00811656 0
0.0180353 -0.00615761 0
0.00669572 -0.0128075 0
0.00782432 -0.00592831 0
0.000193051 -0.0079741 0
0.00669572 -0.0128075 0
-0.00253914 -0.00946305 0
0.00782432 -0.00592831 0
0.00148811 -0.00612801 0
0.000193051 -0.0079741 0
0.000738692 -0.00436014 0
-0.00253914 -0.00946305 0
0.000261042 -0.00437556 0
0.00148811 -0.00612801 0
-0.000324457 -0.00544777 0
0.000738692 -0.00436014 0
0.00074337 -0.00331548 0
0.000261042 -0.00437556 0
0.000167613 -0.00275032 0
-0.000324457 -0.00544777 0
0.000172053 -0.00226014 0
0.00074337 -0.00331548 0
-8.41896e-05 -0.00264005 0
0.000167613 -0.00275032 0
0.00039624 -0.00150592 0
0.000172053 -0.00226014 0
5.72355e-05 -0.00132341 0
-8.41896e-05 -0.00264005 0
0.000216494 -0.00054393 0
0.00039624 -0.00150592 0
-2.84867e-05 -0.000676715 0
5.72355e-05 -0.00132341 0
-0.000315688 -0.000647119 0
-0.000308445 -0.00174686 0
-0.000298054 -0.000647321 0
-0.000288033 -0.00174823 0
-0.000332493 -0.00064763 0
-0.000328345 -0.00174773 0
-0.000315688 -0.000647119 0
-0.000308445 -0.00174686 0
-0.00034334 -0.000647247 0
-0.000338963 -0.00174959 0
-0.000332493 -0.00064763 0
-0.000328345 -0.00174773 0
-0.000351849 -0.000646382 0
-0.000348284 -0.0017507 0
-0.00034334 -0.000647247 0
-0.000338963 -0.00174959 0
-0.000353602 -0.000645646 0
-0.000349514 -0.00175182 0
-0.000351849 -0.000646382 0
-0.000348284 -0.0017507 0
-0.00035099 -0.000644198 0
-0.000346763 -0.0017522 0
-0.000353602 -0.000645646 0
-0.000349514 -0.00175182 0
-0.000338965 -0.000643382 0
-0.000335339 -0.00175249 0
-0.00035099 -0.000644198 0
-0.000346763 -0.0017522 0
-0.000319335 -0.000641733 0
-0.000315591 -0.00175299 0
-0.000338965 -0.000643382 0
-0.000335339 -0.00175249 0
-0.000285813 -0.00064037 0
-0.000284831 -0.00175293 0
-0.000319335 -0.000641733 0
-0.000315591 -0.00175299 0
-0.000238954 -0.000639393 0
-0.00023932 -0.00175225 0
-0.000285813 -0.00064037 0
-0.000284831 -0.00175293 0
-0.000172151 -0.00063788 0
-0.000175743 -0.00174971 0
-0.000238954 -0.000639393 0
-0.00023932 -0.00175225 0
-8.309e-05 -0.000636829 0
-9.38573e-05 -0.001746 0
-0.000172151 -0.00063788 0
-0.000175743 -0.00174971 0
-8.309e-05 -0.000636829 0
2.96292e-05 -0.000636916 0
-9.38573e-05 -0.001746 0
1.65681e-05 -0.00174016 0
0.000174583 -0.000636725 0
0.000157985 -0.00173251 0
2.96292e-05 -0.000636916 0
1.65681e-05 -0.00174016 0
0.000355749 -0.000638715 0
0.000339909 -0.00171961 0
0.000174583 -0.000636725 0
0.000157985 -0.00173251 0
0.000577887 -0.000640459 0
0.000575389 -0.00169915 0
0.000355749 -0.000638715 0
0.000339909 -0.00171961 0
0.000858801 -0.000640717 0
0.000867789 -0.00166989 0
0.000577887 -0.000640459 0
0.000575389 -0.00169915 0
0.00119731 -0.000641513 0
0.00122427 -0.00163383 0
0.000858801 -0.000640717 0
0.000867789 -0.00166989 0
0.0016049 -0.000640906 0
0.00165461 -0.00159324 0
0.00119731 -0.000641513 0
0.00122427 -0.00163383 0
0.00209837 -0.000638835 0
0.00216726 -0.00154903 0
0.0016049 -0.000640906 0
0.00165461 -0.00159324 0
0.00268772 -0.000636006 0
0.00276859 -0.0015048 0
0.00209837 -0.000638835 0
0.00216726 -0.00154903 0
0.00337164 -0.000634973 0
0.00346418 -0.00145601 0
0.00268772 -0.000636006 0
0.00276859 -0.0015048 0
0.00413966 -0.000633805 0
0.00425098 -0.00140763 0
0.00337164 -0.000634973 0
0.00346418 -0.00145601 0
0.0049796 -0.000633285 0
0.00510396 -0.00135274 0
0.00413966 -0.000633805 0
0.00425098 -0.00140763 0
0.00586643 -0.000633692 0
0.00600357 -0.00129047 0
0.0049796 -0.000633285 0
0.00510396 -0.00135274 0
0.00674603 -0.000636431 0
0.0069044 -0.00122371 0
0.00586643 -0.000633692 0
0.00600357 -0.00129047 0
0.00758354 -0.000639588 0
0.00777106 -0.00115629 0
0.00674603 -0.000636431 0
0.0069044 -0.00122371 0
0.00832109 -0.000637897 0
0.00853471 -0.00109132 0
0.00758354 -0.000639588 0
0.00777106 -0.00115629 0
0.00890899 -0.000634244 0
0.00914 -0.00102354 0
0.00832109 -0.000637897 0
0.00853471 -0.00109132 0
0.00925869 -0.000628985 0
0.0095023 -0.000949563 0
0.00890899 -0.000634244 0
0.00914 -0.00102354 0
0.00932044 -0.000622339 0
0.00956963 -0.000862973 0
0.00925869 -0.000628985 0
0.0095023 -0.000949563 0
0.00899818 -0.000615197 0
0.00924214 -0.000757239 0
0.00932044 -0.000622339 0
0.00956963 -0.000862973 0
0.00825515 -0.00061025 0
0.00848734 -0.000617957 0
0.00899818 -0.000615197 0
0.00924214 -0.000757239 0
0.00698465 -0.00060468 0
0.00720476 -0.000439909 0
0.00825515 -0.00061025 0
0.00848734 -0.000617957 0
0.00517212 -0.000597299 0
0.00536984 -0.000199159 0
0.00698465 -0.00060468 0
0.00720476 -0.000439909 0
0.00268815 -0.000588145 0
0.00285049 0.000112813 0
0.00517212 -0.000597299 0
0.00536984 -0.000199159 0
-0.000490105 -0.000578484 0
-0.00036018 0.000526426 0
0.00268815 -0.000588145 0
0.00285049 0.000112813 0
-0.00450843 -0.000566857 0
-0.00442057 0.00102996 0
-0.000490105 -0.000578484 0
-0.00036018 0.000526426 0
-0.00937431 -0.000555015 0
-0.00933694 0.00164434 0
-0.00450843 -0.000566857 0
-0.00442057 0.00102996 0
-0.00937431 -0.000555015 0
-0.0152713 -0.000538699 0
-0.00933694 0.00164434 0
-0.0152922 0.00235172 0
-0.0222121 -0.000517205 0
-0.0222948 0.00315334 0
-0.0152713 -0.000538699 0
-0.0152922 0.00235172 0
-0.0303951 -0.000488321 0
-0.0305784 0.00405058 0
-0.0222121 -0.000517205 0
-0.0222948 0.00315334 0
-0.0398957 -0.000455094 0
-0.0402063 0.00503911 0
-0.0303951 -0.000488321 0
-0.0305784 0.00405058 0
-0.0509207 -0.000415531 0
-0.0514222 0.00610413 0
-0.0398957 -0.000455094 0
-0.0402063 0.00503911 0
-0.0635364 -0.000383926 0
-0.0642847 0.00722545 0
-0.0509207 -0.000415531 0
-0.0514222 0.00610413 0
-0.0635364 -0.000383926 0
-0.0778654 -0.00034016 0
-0.0642847 0.00722545 0
-0.0789564 0.00844967 0
-0.0778654 -0.00034016 0
-0.0939783 -0.00032289 0
-0.0789564 0.00844967 0
-0.0954306 0.00970761 0
-0.111709 -0.000276813 0
-0.113608 0.0109701 0
-0.0939783 -0.00032289 0
-0.0954306 0.00970761 0
-0.131128 -0.000262508 0
-0.133388 0.0123252 0
-0.111709 -0.000276813 0
-0.113608 0.0109701 0
-0.15154 -0.000178383 0
-0.15434 0.0134786 0
-0.131128 -0.000262508 0
-0.133388 0.0123252 0
-0.172828 -0.000183909 0
-0.176105 0.0143782 0
-0.15154 -0.000178383 0
-0.15434 0.0134786 0
-0.193358 -0.000111633 0
-0.19716 0.0146152 0
-0.172828 -0.000183909 0
-0.176105 0.0143782 0
-0.212898 -0.000163761 0
-0.217018 0.0148427 0
-0.193358 -0.000111633 0
-0.19716 0.0146152 0
-0.229514 -0.000132332 0
-0.233661 0.0150751 0
-0.212898 -0.000163761 0
-0.217018 0.0148427 0
-0.243735 -0.000281605 0
-0.248084 0.0162771 0
-0.229514 -0.000132332 0
-0.233661 0.0150751 0
-0.254494 -0.000155792 0
-0.257125 0.0174415 0
-0.243735 -0.000281605 0
-0.248084 0.0162771 0
-0.262201 0.000207786 0
-0.265967 0.0207633 0
-0.254494 -0.000155792 0
-0.257125 0.0174415 0
-0.262201 0.000207786 0
-0.270171 0.000121655 0
-0.265967 0.0207633 0
-0.269279 0.0225847 0
-0.270171 0.000121655 0
-0.271911 -0.000203492 0
-0.269279 0.0225847 0
-0.27593 0.0181674 0
-0.266457 -0.00098114 0
-0.271112 -0.00120151 0
-0.271911 -0.000203492 0
-0.27593 0.0181674 0
-0.247998 -0.000629294 0
-0.24323 -0.0160892 0
-0.266457 -0.00098114 0
-0.271112 -0.00120151 0
0.000504145 -0.000504202 0
0.000610825 -0.00148616 0
0.000216494 -0.00054393 0
0.00039624 -0.00150592 0
0.000504145 -0.000504202 0
0.000682352 -0.000441357 0
0.000610825 -0.00148616 0
0.000765572 -0.00148015 0
0.000807894 -0.000444373 0
0.000846505 -0.00136757 0
0.000682352 -0.000441357 0
0.000765572 -0.00148015 0
0.000807894 -0.000444373 0
0.000829101 -0.00042181 0
0.000846505 -0.00136757 0
0.000865929 -0.00130398 0
0.000829101 -0.00042181 0
0.000811594 -0.000429893 0
0.000865929 -0.00130398 0
0.00082498 -0.00120815 0
0.000811594 -0.000429893 0
0.000723784 -0.00042021 0
0.00082498 -0.00120815 0
0.000742618 -0.00115598 0
0.000723784 -0.00042021 0
0.000626931 -0.000423876 0
0.000742618 -0.00115598 0
0.000629779 -0.00109538 0
0.000626931 -0.000423876 0
0.000496695 -0.000420636 0
0.000629779 -0.00109538 0
0.00049763 -0.00106283 0
0.000496695 -0.000420636 0
0.000371562 -0.000424425 0
0.00049763 -0.00106283 0
0.000367745 -0.00102674 0
0.000371562 -0.000424425 0
0.000236605 -0.000423605 0
0.000367745 -0.00102674 0
0.000236356 -0.00100851 0
0.000236605 -0.000423605 0
0.000119826 -0.000425403 0
0.000236356 -0.00100851 0
0.000118847 -0.000989038 0
0.000119826 -0.000425403 0
6.1191e-06 -0.000425194 0
0.000118847 -0.000989038 0
7.7482e-06 -0.000979938 0
6.1191e-06 -0.000425194 0
-8.67289e-05 -0.000425829 0
7.7482e-06 -0.000979938 0
-8.40045e-05 -0.000970294 0
-8.67289e-05 -0.000425829 0
-0.00017182 -0.000425542 0
-8.40045e-05 -0.000970294 0
-0.000167458 -0.000966743 0
-0.00017182 -0.000425542 0
-0.000236707 -0.000425809 0
-0.000167458 -0.000966743 0
-0.000232802 -0.00096313 0
-0.000236707 -0.000425809 0
-0.000291875 -0.000425722 0
-0.000232802 -0.00096313 0
-0.000291175 -0.000963448 0
-0.000291875 -0.000425722 0
-0.000332871 -0.000426523 0
-0.000291175 -0.000963448 0
-0.000334086 -0.000963072 0
-0.000332871 -0.000426523 0
-0.000368647 -0.000427305 0
-0.000334086 -0.000963072 0
-0.000369056 -0.000965192 0
-0.000368647 -0.000427305 0
-0.000392155 -0.000428317 0
-0.000369056 -0.000965192 0
-0.000391647 -0.000967379 0
-0.000392155 -0.000428317 0
-0.000411947 -0.00042907 0
-0.000391647 -0.000967379 0
-0.000409776 -0.000970756 0
-0.000411947 -0.00042907 0
-0.000420872 -0.000429435 0
-0.000409776 -0.000970756 0
-0.000418299 -0.000974128 0
-0.000420872 -0.000429435 0
-0.00042584 -0.000429946 0
-0.000418299 -0.000974128 0
-0.000423464 -0.000977501 0
-0.00042584 -0.000429946 0
-0.000422732 -0.000430028 0
-0.000423464 -0.000977501 0
-0.000420882 -0.000979861 0
-0.000422732 -0.000430028 0
-0.00041885 -0.000429976 0
-0.000420882 -0.000979861 0
-0.000418034 -0.00098124 0
0.376732 -0.365542 0
0.204985 -0.195874 0
0.367022 -0.127071 0
0.231318 -0.109819 0
0.140967 -0.139265 0
0.16094 -0.0974888 0
0.204985 -0.195874 0
0.231318 -0.109819 0
0.106354 -0.105647 0
0.119882 -0.0812128 0
0.140967 -0.139265 0
0.16094 -0.0974888 0
0.106354 -0.105647 0
0.0848759 -0.084701 0
0.119882 -0.0812128 0
0.0936051 -0.068786 0
0.0848759 -0.084701 0
0.0697331 -0.0697581 0
0.0936051 -0.068786 0
0.0757977 -0.0586799 0
0.0697331 -0.0697581 0
0.0588491 -0.0590131 0
0.0757977 -0.0586799 0
0.0629788 -0.0508825 0
0.0588491 -0.0590131 0
0.0505626 -0.0507906 0
0.0629788 -0.0508825 0
0.0534972 -0.0446463 0
0.0505626 -0.0507906 0
0.0441323 -0.044424 0
0.0534972 -0.0446463 0
0.0462016 -0.0395582 0
0.0441323 -0.044424 0
0.0390079 -0.0393254 0
0.0462016 -0.0395582 0
0.0404874 -0.0354152 0
0.0390079 -0.0393254 0
0.0348222 -0.0351719 0
0.0404874 -0.0354152 0
0.035862 -0.0319112 0
0.031358 -0.0317123 0
0.0320743 -0.0289669 0
0.0348222 -0.0351719 0
0.035862 -0.0319112 0
0.0283793 -0.0287452 0
0.0288302 -0.0263721 0
0.031358 -0.0317123 0
0.0320743 -0.0289669 0
0.0283793 -0.0287452 0
0.0258024 -0.0261792 0
0.0288302 -0.0263721 0
0.0260483 -0.0240828 0
0.0234385 -0.0238436 0
0.0235378 -0.0219574 0
0.0258024 -0.0261792 0
0.0260483 -0.0240828 0
0.0212796 -0.0217137 0
0.0212956 -0.0199886 0
0.0234385 -0.0238436 0
0.0235378 -0.0219574 0
0.0212796 -0.0217137 0
0.0191615 -0.019614 0
0.0212956 -0.0199886 0
0.0190948 -0.0180491 0
0.0171798 -0.0176354 0
0.0169953 -0.0162221 0
0.0191615 -0.019614 0
0.0190948 -0.0180491 0
0.0171798 -0.0176354 0
0.0151756 -0.0156395 0
0.0169953 -0.0162221 0
0.0148587 -0.0142663 0
0.0151756 -0.0156395 0
0.0131858 -0.0136581 0
0.0148587 -0.0142663 0
0.0128651 -0.0123956 0
0.0131858 -0.0136581 0
0.0110706 -0.0115173 0
0.0128651 -0.0123956 0
0.0107862 -0.0101176 0
0.0110706 -0.0115173 0
0.0086153 -0.00896485 0
0.0107862 -0.0101176 0
0.00894174 -0.00812232 0
0.0086153 -0.00896485 0
0.00594409 -0.00631525 0
0.00894174 -0.00812232 0
0.00685249 -0.00520885 0
0.00594409 -0.00631525 0
0.00259444 -0.0015316 0
0.00685249 -0.00520885 0
0.00554556 -0.00375228 0
0.00259444 -0.0015316 0
0.00547018 -0.000233099 0
0.00554556 -0.00375228 0
0.00573201 -0.00280624 0
0.00547018 -0.000233099 0
0.00472635 -0.000422636 0
0.00573201 -0.00280624 0
0.00467495 -0.00201986 0
0.00472635 -0.000422636 0
0.00366722 -0.000452474 0
0.00467495 -0.00201986 0
0.00375164 -0.00165895 0
0.00366722 -0.000452474 0
0.00160394 -0.000341645 0
0.00375164 -0.00165895 0
0.00188671 -0.00150968 0
-0.000420882 -0.000979861 0
-0.000418034 -0.00098124 0
-0.000420351 -0.000694973 0
-0.000419442 -0.00069933 0
-0.000420351 -0.000694973 0
-0.000419442 -0.00069933 0
-0.000424342 -0.0011364 0
-0.000425507 -0.00114041 0
-0.000424342 -0.0011364 0
-0.000425507 -0.00114041 0
-0.000432519 -0.000949072 0
-0.000435089 -0.000954463 0
-0.000432519 -0.000949072 0
-0.000435089 -0.000954463 0
-0.000442493 -0.00130332 0
-0.000448755 -0.00130951 0
-0.000442493 -0.00130332 0
-0.000448755 -0.00130951 0
-0.000455911 -0.0011877 0
-0.000463113 -0.00119376 0
-0.000455911 -0.0011877 0
-0.000463113 -0.00119376 0
-0.00046895 -0.00147171 0
-0.000478363 -0.00147818 0
-0.000485384 -0.00140958 0
-0.00046895 -0.00147171 0
-0.000494843 -0.00141608 0
-0.000478363 -0.00147818 0
-0.000485384 -0.00140958 0
-0.000494843 -0.00141608 0
-0.000503113 -0.00163657 0
-0.000512738 -0.00164336 0
-0.000503113 -0.00163657 0
-0.000512738 -0.00164336 0
-0.00052503 -0.00161386 0
-0.000534014 -0.00162193 0
-0.00052503 -0.00161386 0
-0.000534014 -0.00162193 0
-0.00055157 -0.00179182 0
-0.000560493 -0.00180109 0
-0.00055157 -0.00179182 0
-0.000560493 -0.00180109 0
-0.000584191 -0.00179579 0
-0.000593651 -0.00180771 0
-0.000584191 -0.00179579 0
-0.000593651 -0.00180771 0
-0.000625019 -0.00192517 0
-0.000638409 -0.0019398 0
-0.000625019 -0.00192517 0
-0.000638409 -0.0019398 0
-0.000673383 -0.0019403 0
-0.000693306 -0.00195791 0
-0.000673383 -0.0019403 0
-0.000693306 -0.00195791 0
-0.000729798 -0.00201167 0
-0.000761777 -0.00203214 0
-0.000729798 -0.00201167 0
-0.000761777 -0.00203214 0
-0.000788803 -0.00201845 0
-0.000837465 -0.0020399 0
-0.000788803 -0.00201845 0
-0.000837465 -0.0020399 0
-0.000844216 -0.00201503 0
-0.000913525 -0.00203511 0
-0.000844216 -0.00201503 0
-0.000913525 -0.00203511 0
-0.000883044 -0.00199882 0
-0.000972611 -0.00201278 0
-0.000883044 -0.00199882 0
-0.000972611 -0.00201278 0
-0.00089394 -0.00191433 0
-0.000996148 -0.00191814 0
-0.00089394 -0.00191433 0
-0.000996148 -0.00191814 0
-0.000868709 -0.00189341 0
-0.000968486 -0.00188446 0
-0.000868709 -0.00189341 0
-0.000968486 -0.00188446 0
-0.000810147 -0.00175537 0
-0.000892959 -0.00173813 0
-0.000810147 -0.00175537 0
-0.000892959 -0.00173813 0
-0.000730688 -0.00178064 0
-0.000789998 -0.00175898 0
-0.000730688 -0.00178064 0
-0.000789998 -0.00175898 0
-0.000643325 -0.00161216 0
-0.000679279 -0.00159198 0
-0.000643325 -0.00161216 0
-0.000679279 -0.00159198 0
-0.000564082 -0.00171486 0
-0.000580322 -0.00169701 0
-0.000564082 -0.00171486 0
-0.000580322 -0.00169701 0
-0.000491435 -0.0014957 0
-0.000493567 -0.00148416 0
-0.000491435 -0.0014957 0
-0.000493567 -0.00148416 0
-0.000441287 -0.00168663 0
-0.000436156 -0.00167688 0
-0.000441287 -0.00168663 0
-0.000436156 -0.00167688 0
-0.000391121 -0.00137245 0
-0.00037923 -0.00136548 0
-0.000391121 -0.00137245 0
-0.00037923 -0.00136548 0
-0.000357473 -0.0016855 0
-0.000344072 -0.00168019 0
-0.000357473 -0.0016855 0
-0.000344072 -0.00168019 0
-0.000322054 -0.00121292 0
-0.000304325 -0.00121064 0
-0.000322054 -0.00121292 0
-0.000304325 -0.00121064 0
-0.000313012 -0.00170348 0
-0.000294849 -0.00170434 0
-0.000313012 -0.00170348 0
-0.000294849 -0.00170434 0
-0.000306075 -0.000982265 0
-0.000287182 -0.00098226 0
-0.000306075 -0.000982265 0
-0.000287182 -0.00098226 0
-0.000308445 -0.00174686 0
-0.000288033 -0.00174823 0
0.367022 -0.127071 0
0.231318 -0.109819 0
0.264098 0.0179027 0
0.208794 -0.0296573 0
0.16094 -0.0974888 0
0.155727 -0.0447217 0
0.231318 -0.109819 0
0.208794 -0.0296573 0
0.119882 -0.0812128 0
0.120757 -0.0491245 0
0.16094 -0.0974888 0
0.155727 -0.0447217 0
0.119882 -0.0812128 0
0.0936051 -0.068786 0
0.120757 -0.0491245 0
0.0953769 -0.0465228 0
0.0936051 -0.068786 0
0.0757977 -0.0586799 0
0.0953769 -0.0465228 0
0.0778116 -0.0433546 0
0.0757977 -0.0586799 0
0.0629788 -0.0508825 0
0.0778116 -0.0433546 0
0.0647042 -0.039412 0
0.0629788 -0.0508825 0
0.0534972 -0.0446463 0
0.0647042 -0.039412 0
0.0549291 -0.0358875 0
0.0534972 -0.0446463 0
0.0462016 -0.0395582 0
0.0549291 -0.0358875 0
0.0473646 -0.0325732 0
0.0462016 -0.0395582 0
0.0404874 -0.0354152 0
0.0473646 -0.0325732 0
0.0413671 -0.0296972 0
0.0404874 -0.0354152 0
0.035862 -0.0319112 0
0.0413671 -0.0296972 0
0.036559 -0.0271353 0
0.0320743 -0.0289669 0
0.0325972 -0.0248366 0
0.035862 -0.0319112 0
0.036559 -0.0271353 0
0.0288302 -0.0263721 0
0.0292833 -0.0227618 0
0.0320743 -0.0289669 0
0.0325972 -0.0248366 0
0.0288302 -0.0263721 0
0.0260483 -0.0240828 0
0.0292833 -0.0227618 0
0.026419 -0.0208437 0
0.0235378 -0.0219574 0
0.0237832 -0.019106 0
0.0260483 -0.0240828 0
0.026419 -0.0208437 0
0.0212956 -0.0199886 0
0.0214433 -0.0173984 0
0.0235378 -0.0219574 0
0.0237832 -0.019106 0
0.0212956 -0.0199886 0
0.0190948 -0.0180491 0
0.0214433 -0.0173984 0
0.0191129 -0.0156382 0
0.0169953 -0.0162221 0
0.0169084 -0.0138582 0
0.0190948 -0.0180491 0
0.0191129 -0.0156382 0
0.0169953 -0.0162221 0
0.0148587 -0.0142663 0
0.0169084 -0.0138582 0
0.0145821 -0.0121825 0
0.0148587 -0.0142663 0
0.0128651 -0.0123956 0
0.0145821 -0.0121825 0
0.0126333 -0.0102831 0
0.0128651 -0.0123956 0
0.0107862 -0.0101176 0
0.0126333 -0.0102831 0
0.0103388 -0.00827555 0
0.0107862 -0.0101176 0
0.00894174 -0.00812232 0
0.0103388 -0.00827555 0
0.00879975 -0.00617008 0
0.00697169 -0.00350672 0
0.00573201 -0.00280624 0
0.00560176 -0.00303491 0
0.00467495 -0.00201986 0
0.00560176 -0.00303491 0
0.00467495 -0.00201986 0
0.00416042 -0.00225971 0
0.00375164 -0.00165895 0
0.00416042 -0.00225971 0
0.00375164 -0.00165895 0
0.00178359 -0.00143962 0
0.00188671 -0.00150968 0
0.00492673 -0.00313004 0
0.00416042 -0.00225971 0
0.0024434 -0.00211468 0
0.00178359 -0.00143962 0
0.00548975 -0.00243132 0
0.00492673 -0.00313004 0
0.00258329 -0.00140215 0
0.0024434 -0.00211468 0
0.00648001 -0.00202979 0
0.00548975 -0.00243132 0
0.00360109 -0.000917246 0
0.00258329 -0.00140215 0
0.00831627 -0.000759831 0
0.00648001 -0.00202979 0
0.00383905 0.0013942 0
0.00360109 -0.000917246 0
0.0113042 -0.000330775 0
0.00831627 -0.000759831 0
0.00977664 0.00447027 0
0.00383905 0.0013942 0
0.0141077 -0.00149454 0
0.0113042 -0.000330775 0
0.0148375 0.00115405 0
0.00977664 0.00447027 0
0.0141077 -0.00149454 0
0.0148375 0.00115405 0
0.0159418 -0.00281298 0
0.0156406 -0.00221101 0
0.0148375 0.00115405 0
0.0183368 0.000775483 0
0.0156406 -0.00221101 0
0.0167661 -0.00231634 0
0.0149839 -0.0052601 0
0.0155799 -0.00218152 0
0.0183368 0.000775483 0
0.0167661 -0.00231634 0
0.0148024 0.000335437 0
0.0145129 -0.00323654 0
0.0149839 -0.0052601 0
0.0155799 -0.00218152 0
0.0180353 -0.00615761 0
0.0139188 -0.0038212 0
0.0148024 0.000335437 0
0.0145129 -0.00323654 0
0.0119434 -0.00811656 0
0.0107663 -0.0051712 0
0.0180353 -0.00615761 0
0.0139188 -0.0038212 0
0.00787676 -0.00637356 0
0.00885566 -0.0053309 0
0.0119434 -0.00811656 0