# vtk DataFile Version 3.0
#This file was generated by the deal.II library on 2016/12/20 at 10:56:47
ASCII
DATASET UNSTRUCTURED_GRID

POINTS 7264 double
-1 0.5 0
-0.978723 0.478723 0
-0.970149 0.5 0
-0.964976 0.485465 0
0.12 -0.5 0
0.15 -0.5 0
0.119014 -0.4708 0
0.15 -0.471429 0
0.11755 -0.441479 0
0.119014 -0.4708 0
0.15 -0.442857 0
0.15 -0.471429 0
0.117242 -0.412206 0
0.11755 -0.441479 0
0.15 -0.414286 0
0.15 -0.442857 0
0.118129 -0.383064 0
0.117242 -0.412206 0
0.15 -0.385714 0
0.15 -0.414286 0
0.12021 -0.354337 0
0.118129 -0.383064 0
0.15 -0.357143 0
0.15 -0.385714 0
0.121793 -0.32584 0
0.12021 -0.354337 0
0.15 -0.328571 0
0.15 -0.357143 0
0.122717 -0.296869 0
0.121793 -0.32584 0
0.15 -0.3 0
0.15 -0.328571 0
0.123759 -0.266752 0
0.122717 -0.296869 0
0.153091 -0.267708 0
0.15 -0.3 0
0.18456 -0.26795 0
0.153091 -0.267708 0
0.183333 -0.3 0
0.15 -0.3 0
0.216606 -0.268111 0
0.18456 -0.26795 0
0.216667 -0.3 0
0.183333 -0.3 0
0.24835 -0.26841 0
0.216606 -0.268111 0
0.25 -0.3 0
0.216667 -0.3 0
0.278782 -0.268564 0
0.24835 -0.26841 0
0.279437 -0.298917 0
0.25 -0.3 0
0.279638 -0.328111 0
0.279437 -0.298917 0
0.25 -0.328571 0
0.25 -0.3 0
0.27971 -0.356801 0
0.279638 -0.328111 0
0.25 -0.357143 0
0.25 -0.328571 0
0.279677 -0.385395 0
0.27971 -0.356801 0
0.25 -0.385714 0
0.25 -0.357143 0
0.279641 -0.413938 0
0.279677 -0.385395 0
0.25 -0.414286 0
0.25 -0.385714 0
0.279666 -0.442534 0
0.279641 -0.413938 0
0.25 -0.442857 0
0.25 -0.414286 0
0.279811 -0.471266 0
0.279666 -0.442534 0
0.25 -0.471429 0
0.25 -0.442857 0
0.28 -0.5 0
0.279811 -0.471266 0
0.25 -0.5 0
0.25 -0.471429 0
0.970149 0.5 0
0.970096 0.46978 0
1 0.5 0
1 0.469697 0
0.940299 0.5 0
0.940231 0.46984 0
0.970149 0.5 0
0.970096 0.46978 0
0.910448 0.5 0
0.910371 0.469856 0
0.940299 0.5 0
0.940231 0.46984 0
0.880597 0.5 0
0.880527 0.469909 0
0.910448 0.5 0
0.910371 0.469856 0
0.850746 0.5 0
0.850684 0.469926 0
0.880597 0.5 0
0.880527 0.469909 0
0.820896 0.5 0
0.820842 0.469978 0
0.850746 0.5 0
0.850684 0.469926 0
0.791045 0.5 0
0.791001 0.470016 0
0.820896 0.5 0
0.820842 0.469978 0
0.761194 0.5 0
0.761159 0.470055 0
0.791045 0.5 0
0.791001 0.470016 0
0.731343 0.5 0
0.731316 0.470091 0
0.761194 0.5 0
0.761159 0.470055 0
0.701493 0.5 0
0.701472 0.470118 0
0.731343 0.5 0
0.731316 0.470091 0
0.671642 0.5 0
0.671627 0.470134 0
0.701493 0.5 0
0.701472 0.470118 0
0.641791 0.5 0
0.64178 0.470142 0
0.671642 0.5 0
0.671627 0.470134 0
0.641791 0.5 0
0.61194 0.5 0
0.64178 0.470142 0
0.611934 0.470065 0
0.58209 0.5 0
0.582089 0.470002 0
0.61194 0.5 0
0.611934 0.470065 0
0.552239 0.5 0
0.552248 0.469853 0
0.58209 0.5 0
0.582089 0.470002 0
0.522388 0.5 0
0.522413 0.469718 0
0.552239 0.5 0
0.552248 0.469853 0
0.492537 0.5 0
0.492577 0.469656 0
0.522388 0.5 0
0.522413 0.469718 0
0.462687 0.5 0
0.462743 0.469571 0
0.492537 0.5 0
0.492577 0.469656 0
0.432836 0.5 0
0.432895 0.46963 0
0.462687 0.5 0
0.462743 0.469571 0
0.402985 0.5 0
0.403046 0.469669 0
0.432836 0.5 0
0.432895 0.46963 0
0.373134 0.5 0
0.373191 0.469745 0
0.402985 0.5 0
0.403046 0.469669 0
0.343284 0.5 0
0.343335 0.469723 0
0.373134 0.5 0
0.373191 0.469745 0
0.313433 0.5 0
0.313478 0.469741 0
0.343284 0.5 0
0.343335 0.469723 0
0.283582 0.5 0
0.283622 0.469783 0
0.313433 0.5 0
0.313478 0.469741 0
0.253731 0.5 0
0.253768 0.469742 0
0.283582 0.5 0
0.283622 0.469783 0
0.223881 0.5 0
0.223918 0.469737 0
0.253731 0.5 0
0.253768 0.469742 0
0.19403 0.5 0
0.194064 0.46981 0
0.223881 0.5 0
0.223918 0.469737 0
0.164179 0.5 0
0.16421 0.469881 0
0.19403 0.5 0
0.194064 0.46981 0
0.134328 0.5 0
0.134355 0.46994 0
0.164179 0.5 0
0.16421 0.469881 0
0.104478 0.5 0
0.1045 0.469997 0
0.134328 0.5 0
0.134355 0.46994 0
0.074627 0.5 0
0.074645 0.470051 0
0.104478 0.5 0
0.1045 0.469997 0
0.044776 0.5 0
0.04479 0.470093 0
0.074627 0.5 0
0.074645 0.470051 0
0.014925 0.5 0
0.014935 0.47012 0
0.044776 0.5 0
0.04479 0.470093 0
-0.014925 0.5 0
-0.014918 0.470135 0
0.014925 0.5 0
0.014935 0.47012 0
-0.044776 0.5 0
-0.044771 0.470143 0
-0.014925 0.5 0
-0.014918 0.470135 0
-0.074627 0.5 0
-0.074623 0.470146 0
-0.044776 0.5 0
-0.044771 0.470143 0
-0.104478 0.5 0
-0.104496 0.469979 0
-0.074627 0.5 0
-0.074623 0.470146 0
-0.134328 0.5 0
-0.134359 0.469935 0
-0.104478 0.5 0
-0.104496 0.469979 0
-0.164179 0.5 0
-0.164225 0.469839 0
-0.134328 0.5 0
-0.134359 0.469935 0
-0.164179 0.5 0
-0.19403 0.5 0
-0.164225 0.469839 0
-0.194083 0.469797 0
-0.223881 0.5 0
-0.22394 0.469753 0
-0.19403 0.5 0
-0.194083 0.469797 0
-0.253731 0.5 0
-0.253798 0.469819 0
-0.223881 0.5 0
-0.22394 0.469753 0
-0.283582 0.5 0
-0.283647 0.470019 0
-0.253731 0.5 0
-0.253798 0.469819 0
-0.313433 0.5 0
-0.313491 0.470151 0
-0.283582 0.5 0
-0.283647 0.470019 0
-0.343284 0.5 0
-0.343348 0.470381 0
-0.313433 0.5 0
-0.313491 0.470151 0
-0.343284 0.5 0
-0.373134 0.5 0
-0.343348 0.470381 0
-0.373195 0.470395 0
-0.373134 0.5 0
-0.402985 0.5 0
-0.373195 0.470395 0
-0.403049 0.470404 0
-0.432836 0.5 0
-0.432937 0.470297 0
-0.402985 0.5 0
-0.403049 0.470404 0
-0.462687 0.5 0
-0.462848 0.469995 0
-0.432836 0.5 0
-0.432937 0.470297 0
-0.492537 0.5 0
-0.492807 0.469765 0
-0.462687 0.5 0
-0.462848 0.469995 0
-0.522388 0.5 0
-0.52276 0.46958 0
-0.492537 0.5 0
-0.492807 0.469765 0
-0.552239 0.5 0
-0.55273 0.469652 0
-0.522388 0.5 0
-0.52276 0.46958 0
-0.58209 0.5 0
-0.582662 0.469731 0
-0.552239 0.5 0
-0.55273 0.469652 0
-0.61194 0.5 0
-0.612594 0.469999 0
-0.58209 0.5 0
-0.582662 0.469731 0
-0.641791 0.5 0
-0.642647 0.470419 0
-0.61194 0.5 0
-0.612594 0.469999 0
-0.671642 0.5 0
-0.672638 0.470543 0
-0.641791 0.5 0
-0.642647 0.470419 0
-0.701493 0.5 0
-0.702968 0.4698 0
-0.671642 0.5 0
-0.672638 0.470543 0
-0.820896 0.5 0
-0.822797 0.47207 0
-0.791045 0.5 0
-0.795702 0.469563 0
0.31 -0.5 0
0.309694 -0.471123 0
0.28 -0.5 0
0.279811 -0.471266 0
0.31 -0.5 0
0.34 -0.5 0
0.309694 -0.471123 0
0.339686 -0.471033 0
0.37 -0.5 0
0.369721 -0.471055 0
0.34 -0.5 0
0.339686 -0.471033 0
0.37 -0.5 0
0.4 -0.5 0
0.369721 -0.471055 0
0.399756 -0.470957 0
0.4 -0.5 0
0.43 -0.5 0
0.399756 -0.470957 0
0.429805 -0.470822 0
0.43 -0.5 0
0.46 -0.5 0
0.429805 -0.470822 0
0.459835 -0.470712 0
0.46 -0.5 0
0.49 -0.5 0
0.459835 -0.470712 0
0.489873 -0.470554 0
0.49 -0.5 0
0.52 -0.5 0
0.489873 -0.470554 0
0.519906 -0.470379 0
0.52 -0.5 0
0.55 -0.5 0
0.519906 -0.470379 0
0.54993 -0.470248 0
0.55 -0.5 0
0.58 -0.5 0
0.54993 -0.470248 0
0.579948 -0.470155 0
0.58 -0.5 0
0.61 -0.5 0
0.579948 -0.470155 0
0.609962 -0.470091 0
0.61 -0.5 0
0.64 -0.5 0
0.609962 -0.470091 0
0.639972 -0.47005 0
0.64 -0.5 0
0.67 -0.5 0
0.639972 -0.47005 0
0.66998 -0.470026 0
0.67 -0.5 0
0.7 -0.5 0
0.66998 -0.470026 0
0.699986 -0.470013 0
0.7 -0.5 0
0.73 -0.5 0
0.699986 -0.470013 0
0.72999 -0.470006 0
0.73 -0.5 0
0.76 -0.5 0
0.72999 -0.470006 0
0.759994 -0.470003 0
0.76 -0.5 0
0.79 -0.5 0
0.759994 -0.470003 0
0.78998 -0.469916 0
0.79 -0.5 0
0.82 -0.5 0
0.78998 -0.469916 0
0.819956 -0.469877 0
0.82 -0.5 0
0.85 -0.5 0
0.819956 -0.469877 0
0.849929 -0.469833 0
0.85 -0.5 0
0.88 -0.5 0
0.849929 -0.469833 0
0.879924 -0.469805 0
0.88 -0.5 0
0.91 -0.5 0
0.879924 -0.469805 0
0.909913 -0.469792 0
0.91 -0.5 0
0.94 -0.5 0
0.909913 -0.469792 0
0.939922 -0.469775 0
0.94 -0.5 0
0.97 -0.5 0
0.939922 -0.469775 0
0.969956 -0.46974 0
0.97 -0.5 0
1 -0.5 0
0.969956 -0.46974 0
1 -0.469697 0
-0.702128 0.202128 0
-0.680851 0.180851 0
-0.680976 0.2243 0
-0.659597 0.203254 0
-0.680851 0.180851 0
-0.659574 0.159574 0
-0.659597 0.203254 0
-0.638233 0.18203 0
-0.638298 0.138298 0
-0.616915 0.16063 0
-0.659574 0.159574 0
-0.638233 0.18203 0
-0.617021 0.117021 0
-0.595665 0.139192 0
-0.638298 0.138298 0
-0.616915 0.16063 0
-0.617021 0.117021 0
-0.595745 0.095745 0
-0.595665 0.139192 0
-0.574431 0.117764 0
-0.595745 0.095745 0
-0.574468 0.074468 0
-0.574431 0.117764 0
-0.553204 0.096309 0
-0.553191 0.053191 0
-0.53184 0.075023 0
-0.574468 0.074468 0
-0.553204 0.096309 0
-0.553191 0.053191 0
-0.531915 0.031915 0
-0.53184 0.075023 0
-0.510492 0.053733 0
-0.531915 0.031915 0
-0.510638 0.010638 0
-0.510492 0.053733 0
-0.489127 0.032461 0
-0.510638 0.010638 0
-0.489362 -0.010638 0
-0.489127 0.032461 0
-0.467791 0.011178 0
-0.489362 -0.010638 0
-0.468085 -0.031915 0
-0.467791 0.011178 0
-0.446536 -0.010172 0
-0.446809 -0.053191 0
-0.42524 -0.031466 0
-0.468085 -0.031915 0
-0.446536 -0.010172 0
-0.425532 -0.074468 0
-0.404012 -0.052824 0
-0.446809 -0.053191 0
-0.42524 -0.031466 0
-0.425532 -0.074468 0
-0.404255 -0.095745 0
-0.404012 -0.052824 0
-0.382783 -0.074175 0
-0.404255 -0.095745 0
-0.382979 -0.117021 0
-0.382783 -0.074175 0
-0.361545 -0.095511 0
-0.382979 -0.117021 0
-0.361702 -0.138298 0
-0.361545 -0.095511 0
-0.340288 -0.116831 0
-0.361702 -0.138298 0
-0.340426 -0.159574 0
-0.340288 -0.116831 0
-0.319034 -0.138159 0
-0.340426 -0.159574 0
-0.319149 -0.180851 0
-0.319034 -0.138159 0
-0.297766 -0.159484 0
-0.319149 -0.180851 0
-0.297872 -0.202128 0
-0.297766 -0.159484 0
-0.276489 -0.180797 0
-0.297872 -0.202128 0
-0.276596 -0.223404 0
-0.276489 -0.180797 0
-0.255087 -0.202105 0
-0.255319 -0.244681 0
-0.233674 -0.223466 0
-0.276596 -0.223404 0
-0.255087 -0.202105 0
-0.234043 -0.265957 0
-0.212119 -0.244916 0
-0.255319 -0.244681 0
-0.233674 -0.223466 0
-0.234043 -0.265957 0
-0.212766 -0.287234 0
-0.212119 -0.244916 0
-0.190657 -0.266392 0
-0.191489 -0.308511 0
-0.169261 -0.287934 0
-0.212766 -0.287234 0
-0.190657 -0.266392 0
-0.170213 -0.329787 0
-0.147854 -0.309624 0
-0.191489 -0.308511 0
-0.169261 -0.287934 0
-0.170213 -0.329787 0
-0.148936 -0.351064 0
-0.147854 -0.309624 0
-0.126431 -0.331364 0
-0.12766 -0.37234 0
-0.105256 -0.353368 0
-0.148936 -0.351064 0
-0.126431 -0.331364 0
-0.12766 -0.37234 0
-0.106383 -0.393617 0
-0.105256 -0.353368 0
-0.083924 -0.375263 0
-0.106383 -0.393617 0
-0.085106 -0.414894 0
-0.083924 -0.375263 0
-0.062097 -0.396824 0
-0.085106 -0.414894 0
-0.06383 -0.43617 0
-0.062097 -0.396824 0
-0.040132 -0.418076 0
-0.06383 -0.43617 0
-0.042553 -0.457447 0
-0.040132 -0.418076 0
-0.019646 -0.439891 0
-0.042553 -0.457447 0
-0.021277 -0.478723 0
-0.019646 -0.439891 0
[...]
POINT_DATA 7264
VECTORS momentum double
0.00118312 -0.000924089 0
0.00506047 -0.00523705 0
0.0137752 -0.00124416 0
0.0157081 0.000807435 0
-8.62979e-05 -0.00040019 0
6.88406e-05 -0.000402163 0
-2.25997e-05 -0.000914032 0
6.22738e-05 -0.000877782 0
-0.000200254 -0.000555888 0
-2.25997e-05 -0.000914032 0
7.32591e-05 -0.000595038 0
6.22738e-05 -0.000877782 0
-3.85927e-05 -0.000975362 0
-0.000200254 -0.000555888 0
-7.40879e-07 -0.00108024 0
7.32591e-05 -0.000595038 0
3.40408e-05 -0.000643919 0
-3.85927e-05 -0.000975362 0
-1.43548e-05 -0.000733089 0
-7.40879e-07 -0.00108024 0
3.53923e-05 -0.000930242 0
3.40408e-05 -0.000643919 0
-3.75308e-05 -0.000950846 0
-1.43548e-05 -0.000733089 0
0.000128155 -0.000647033 0
3.53923e-05 -0.000930242 0
-4.65782e-06 -0.000607493 0
-3.75308e-05 -0.000950846 0
3.01394e-05 -0.00112398 0
0.000128155 -0.000647033 0
-2.6998e-05 -0.000575559 0
-4.65782e-06 -0.000607493 0
-0.000428844 -0.000652848 0
3.01394e-05 -0.00112398 0
-0.000657899 -0.000878786 0
-2.6998e-05 -0.000575559 0
-0.00030842 -0.00122074 0
-0.000657899 -0.000878786 0
-7.91365e-06 -0.000433688 0
-2.6998e-05 -0.000575559 0
-0.000155407 -0.00127114 0
-0.00030842 -0.00122074 0
-0.000514361 -0.000493331 0
-7.91365e-06 -0.000433688 0
4.9974e-05 -0.000771773 0
-0.000155407 -0.00127114 0
-0.000238664 -0.00044922 0
-0.000514361 -0.000493331 0
-4.30927e-06 -0.000499215 0
4.9974e-05 -0.000771773 0
-0.000239297 -0.000835163 0
-0.000238664 -0.00044922 0
-4.73886e-05 -0.000424906 0
-0.000239297 -0.000835163 0
2.39208e-05 -0.000296196 0
-0.000238664 -0.00044922 0
-3.66109e-05 -0.000752029 0
-4.73886e-05 -0.000424906 0
-1.9397e-05 -0.000771466 0
2.39208e-05 -0.000296196 0
1.14788e-05 -0.000414485 0
-3.66109e-05 -0.000752029 0
3.58196e-06 -0.000389736 0
-1.9397e-05 -0.000771466 0
-2.23799e-05 -0.000788325 0
1.14788e-05 -0.000414485 0
-4.4211e-06 -0.000798355 0
3.58196e-06 -0.000389736 0
5.60328e-06 -0.000399939 0
-2.23799e-05 -0.000788325 0
1.39235e-06 -0.000390218 0
-4.4211e-06 -0.000798355 0
-1.95652e-05 -0.000840772 0
5.60328e-06 -0.000399939 0
-2.61859e-06 -0.000844392 0
1.39235e-06 -0.000390218 0
9.89679e-06 -0.000378699 0
-1.95652e-05 -0.000840772 0
1.95383e-06 -0.000373221 0
-2.61859e-06 -0.000844392 0
-2.99711e-05 -0.000659861 0
-1.9362e-05 -0.00171197 0
-3.16797e-05 -0.000660076 0
-1.80925e-05 -0.00171332 0
-2.45738e-05 -0.000660319 0
-1.72155e-05 -0.00171111 0
-2.99711e-05 -0.000659861 0
-1.9362e-05 -0.00171197 0
-1.94266e-05 -0.000659851 0
-1.13833e-05 -0.00170983 0
-2.45738e-05 -0.000660319 0
-1.72155e-05 -0.00171111 0
-1.34179e-05 -0.000658885 0
-5.45926e-06 -0.00170826 0
-1.94266e-05 -0.000659851 0
-1.13833e-05 -0.00170983 0
-6.79198e-06 -0.00065815 0
2.43479e-06 -0.00170696 0
-1.34179e-05 -0.000658885 0
-5.45926e-06 -0.00170826 0
9.91709e-07 -0.000656663 0
1.09328e-05 -0.00170556 0
-6.79198e-06 -0.00065815 0
2.43479e-06 -0.00170696 0
1.07513e-05 -0.000655865 0
2.05021e-05 -0.00170422 0
9.91709e-07 -0.000656663 0
1.09328e-05 -0.00170556 0
2.08743e-05 -0.000654241 0
3.11759e-05 -0.00170363 0
1.07513e-05 -0.000655865 0
2.05021e-05 -0.00170422 0
3.32214e-05 -0.000652944 0
4.11049e-05 -0.00170333 0
2.08743e-05 -0.000654241 0
3.11759e-05 -0.00170363 0
4.5763e-05 -0.000652122 0
5.22944e-05 -0.00170396 0
3.32214e-05 -0.000652944 0
4.11049e-05 -0.00170333 0
6.04188e-05 -0.00065087 0
6.28766e-05 -0.0017047 0
4.5763e-05 -0.000652122 0
5.22944e-05 -0.00170396 0
7.60864e-05 -0.000650111 0
6.94332e-05 -0.0017072 0
6.04188e-05 -0.00065087 0
6.28766e-05 -0.0017047 0
7.60864e-05 -0.000650111 0
8.81316e-05 -0.000650727 0
6.94332e-05 -0.0017072 0
7.60362e-05 -0.00171056 0
9.92005e-05 -0.000651055 0
7.92377e-05 -0.00171623 0
8.81316e-05 -0.000650727 0
7.60362e-05 -0.00171056 0
0.000105107 -0.000653755 0
8.06004e-05 -0.00172118 0
9.92005e-05 -0.000651055 0
7.92377e-05 -0.00171623 0
0.000102803 -0.000656461 0
8.52724e-05 -0.00172423 0
0.000105107 -0.000653755 0
8.06004e-05 -0.00172118 0
0.00010123 -0.000657702 0
8.75725e-05 -0.00172483 0
0.000102803 -0.000656461 0
8.52724e-05 -0.00172423 0
9.08486e-05 -0.000659816 0
8.5611e-05 -0.00172435 0
0.00010123 -0.000657702 0
8.75725e-05 -0.00172483 0
7.32496e-05 -0.000660493 0
7.93243e-05 -0.00172315 0
9.08486e-05 -0.000659816 0
8.5611e-05 -0.00172435 0
5.62323e-05 -0.000659611 0
6.78669e-05 -0.0017208 0
7.32496e-05 -0.000660493 0
7.93243e-05 -0.00172315 0
4.2735e-05 -0.000657838 0
5.10976e-05 -0.00172022 0
5.62323e-05 -0.000659611 0
6.78669e-05 -0.0017208 0
3.06446e-05 -0.000657928 0
3.37538e-05 -0.00171838 0
4.2735e-05 -0.000657838 0
5.10976e-05 -0.00172022 0
1.62915e-05 -0.000657726 0
2.03642e-05 -0.00172059 0
3.06446e-05 -0.000657928 0
3.37538e-05 -0.00171838 0
5.04543e-06 -0.000657849 0
4.10446e-06 -0.00172045 0
1.62915e-05 -0.000657726 0
2.03642e-05 -0.00172059 0
-1.10782e-06 -0.000659148 0
-8.48166e-06 -0.00171737 0
5.04543e-06 -0.000657849 0
4.10446e-06 -0.00172045 0
-1.60523e-05 -0.00066265 0
-2.19562e-05 -0.00171245 0
-1.10782e-06 -0.000659148 0
-8.48166e-06 -0.00171737 0
-3.09768e-05 -0.000666818 0
-2.6283e-05 -0.001706 0
-1.60523e-05 -0.00066265 0
-2.19562e-05 -0.00171245 0
-4.4989e-05 -0.000666095 0
-3.10072e-05 -0.00170426 0
-3.09768e-05 -0.000666818 0
-2.6283e-05 -0.001706 0
-4.72946e-05 -0.000663726 0
-3.02891e-05 -0.00170413 0
-4.4989e-05 -0.000666095 0
-3.10072e-05 -0.00170426 0
-5.35776e-05 -0.00066009 0
-3.46996e-05 -0.00170717 0
-4.72946e-05 -0.000663726 0
-3.02891e-05 -0.00170413 0
-4.59116e-05 -0.000655501 0
-2.76342e-05 -0.00171082 0
-5.35776e-05 -0.00066009 0
-3.46996e-05 -0.00170717 0
-4.71365e-05 -0.000650982 0
-3.48428e-05 -0.00171651 0
-4.59116e-05 -0.000655501 0
-2.76342e-05 -0.00171082 0
-2.85861e-05 -0.000649472 0
-2.45146e-05 -0.00171757 0
-4.71365e-05 -0.000650982 0
-3.48428e-05 -0.00171651 0
-3.36151e-05 -0.000649214 0
-3.20226e-05 -0.00172235 0
-2.85861e-05 -0.000649472 0
-2.45146e-05 -0.00171757 0
-7.21813e-06 -0.000648814 0
-1.24562e-05 -0.00172099 0
-3.36151e-05 -0.000649214 0
-3.20226e-05 -0.00172235 0
-2.38913e-05 -0.000649819 0
-4.13624e-05 -0.00172234 0
-7.21813e-06 -0.000648814 0
-1.24562e-05 -0.00172099 0
-1.40249e-05 -0.000652194 0
-3.63169e-05 -0.00171212 0
-2.38913e-05 -0.000649819 0
-4.13624e-05 -0.00172234 0
-9.73407e-05 -0.000655816 0
-0.000115626 -0.00170227 0
-1.40249e-05 -0.000652194 0
-3.63169e-05 -0.00171212 0
-0.000134378 -0.000659625 0
-0.000152347 -0.00167053 0
-9.73407e-05 -0.000655816 0
-0.000115626 -0.00170227 0
-0.000134378 -0.000659625 0
-0.000347037 -0.000663964 0
-0.000152347 -0.00167053 0
-0.000343348 -0.00163826 0
-0.000506325 -0.000660318 0
-0.00047591 -0.00156819 0
-0.000347037 -0.000663964 0
-0.000343348 -0.00163826 0
-0.000985369 -0.000653918 0
-0.00091011 -0.00148504 0
-0.000506325 -0.000660318 0
-0.00047591 -0.00156819 0
-0.00141871 -0.000639212 0
-0.00131861 -0.00128701 0
-0.000985369 -0.000653918 0
-0.00091011 -0.00148504 0
-0.00248015 -0.000622763 0
-0.00232957 -0.00105386 0
-0.00141871 -0.000639212 0
-0.00131861 -0.00128701 0
-0.00356905 -0.000594732 0
-0.00339597 -0.000582782 0
-0.00248015 -0.000622763 0
-0.00232957 -0.00105386 0
-0.00356905 -0.000594732 0
-0.00586792 -0.000561404 0
-0.00339597 -0.000582782 0
-0.00562211 -1.78772e-05 0
-0.00586792 -0.000561404 0
-0.00837701 -0.000516897 0
-0.00562211 -1.78772e-05 0
-0.00812217 0.0010557 0
-0.0131776 -0.000473214 0
-0.0127795 0.0023061 0
-0.00837701 -0.000516897 0
-0.00812217 0.0010557 0
-0.0185929 -0.000400866 0
-0.0181677 0.00455678 0
-0.0131776 -0.000473214 0
-0.0127795 0.0023061 0
-0.0282305 -0.000325298 0
-0.0274611 0.00707274 0
-0.0185929 -0.000400866 0
-0.0181677 0.00455678 0
-0.0392006 -0.000175577 0
-0.0384511 0.0113074 0
-0.0282305 -0.000325298 0
-0.0274611 0.00707274 0
-0.0577384 -7.18153e-05 0
-0.0563662 0.0158293 0
-0.0392006 -0.000175577 0
-0.0384511 0.0113074 0
-0.0790246 0.00019283 0
-0.0778959 0.0238385 0
-0.0577384 -7.18153e-05 0
-0.0563662 0.0158293 0
-0.114307 0.000334395 0
-0.11134 0.0315415 0
-0.0790246 0.00019283 0
-0.0778959 0.0238385 0
-0.153949 0.00137629 0
-0.152684 0.0462538 0
-0.114307 0.000334395 0
-0.11134 0.0315415 0
-0.217231 0.00168788 0
-0.21061 0.0485376 0
-0.153949 0.00137629 0
-0.152684 0.0462538 0
-0.247523 2.0069e-05 0
-0.273329 0.0201721 0
-0.217231 0.00168788 0
-0.21061 0.0485376 0
-0.0299313 -0.00360115 0
-0.0147522 -0.0365815 0
-0.0836227 -0.0022594 0
-0.0645303 -0.0744282 0
1.01005e-06 -0.000388928 0
-2.76972e-05 -0.000838368 0
9.89679e-06 -0.000378699 0
-1.95652e-05 -0.000840772 0
1.01005e-06 -0.000388928 0
-1.54577e-05 -0.00039666 0
-2.76972e-05 -0.000838368 0
-2.98545e-05 -0.000836714 0
-2.85283e-05 -0.000400079 0
-3.84218e-05 -0.000835812 0
-1.54577e-05 -0.00039666 0
-2.98545e-05 -0.000836714 0
-2.85283e-05 -0.000400079 0
-3.50774e-05 -0.000403896 0
-3.84218e-05 -0.000835812 0
-4.77541e-05 -0.000834055 0
-3.50774e-05 -0.000403896 0
-4.27627e-05 -0.000406385 0
-4.77541e-05 -0.000834055 0
-5.49242e-05 -0.000834615 0
-4.27627e-05 -0.000406385 0
-5.06763e-05 -0.000408616 0
-5.49242e-05 -0.000834615 0
-6.03526e-05 -0.000836239 0
-5.06763e-05 -0.000408616 0
-5.59564e-05 -0.000408853 0
-6.03526e-05 -0.000836239 0
-6.77216e-05 -0.000839605 0
-5.59564e-05 -0.000408853 0
-6.03492e-05 -0.000411325 0
-6.77216e-05 -0.000839605 0
-7.48702e-05 -0.000842395 0
-6.03492e-05 -0.000411325 0
-6.5361e-05 -0.000413416 0
-7.48702e-05 -0.000842395 0
-7.70174e-05 -0.000844986 0
-6.5361e-05 -0.000413416 0
-6.86398e-05 -0.000415439 0
-7.70174e-05 -0.000844986 0
-7.70543e-05 -0.000847596 0
-6.86398e-05 -0.000415439 0
-6.87827e-05 -0.000416499 0
-7.70543e-05 -0.000847596 0
-7.44669e-05 -0.000849637 0
-6.87827e-05 -0.000416499 0
-6.69458e-05 -0.000417661 0
-7.44669e-05 -0.000849637 0
-7.05018e-05 -0.00085136 0
-6.69458e-05 -0.000417661 0
-6.27886e-05 -0.00041797 0
-7.05018e-05 -0.00085136 0
-6.41328e-05 -0.000852684 0
-6.27886e-05 -0.00041797 0
-5.78411e-05 -0.000418319 0
-6.41328e-05 -0.000852684 0
-5.81346e-05 -0.00085399 0
-5.78411e-05 -0.000418319 0
-5.1051e-05 -0.000418424 0
-5.81346e-05 -0.00085399 0
-5.15272e-05 -0.000855563 0
-5.1051e-05 -0.000418424 0
-4.29592e-05 -0.000418646 0
-5.15272e-05 -0.000855563 0
-4.68964e-05 -0.000857808 0
-4.29592e-05 -0.000418646 0
-3.64378e-05 -0.000419353 0
-4.68964e-05 -0.000857808 0
-4.22174e-05 -0.000859489 0
-3.64378e-05 -0.000419353 0
-3.22022e-05 -0.000420252 0
-4.22174e-05 -0.000859489 0
-3.74141e-05 -0.000861799 0
-3.22022e-05 -0.000420252 0
-2.85173e-05 -0.000421193 0
-3.74141e-05 -0.000861799 0
-3.2915e-05 -0.00086415 0
-2.85173e-05 -0.000421193 0
-2.74138e-05 -0.000421954 0
-3.2915e-05 -0.00086415 0
-3.02532e-05 -0.000866417 0
-2.74138e-05 -0.000421954 0
-2.56107e-05 -0.000422256 0
-3.02532e-05 -0.000866417 0
-2.79175e-05 -0.000868761 0
-2.56107e-05 -0.000422256 0
-2.44856e-05 -0.000422742 0
-2.79175e-05 -0.000868761 0
-2.66857e-05 -0.000870517 0
-2.44856e-05 -0.000422742 0
-2.22742e-05 -0.000422802 0
-2.66857e-05 -0.000870517 0
-2.45154e-05 -0.000871917 0
-2.22742e-05 -0.000422802 0
-2.09474e-05 -0.000422796 0
-2.45154e-05 -0.000871917 0
-2.38362e-05 -0.000872675 0
0.325396 -0.313696 0
0.18484 -0.176285 0
0.339558 -0.124374 0
0.214383 -0.0889932 0
0.18484 -0.176285 0
0.121062 -0.118954 0
0.214383 -0.0889932 0
0.143686 -0.0750409 0
0.0871332 -0.0862961 0
0.101098 -0.0615241 0
0.121062 -0.118954 0
0.143686 -0.0750409 0
0.0653005 -0.0650539 0
0.0740662 -0.0500391 0
0.0871332 -0.0862961 0
0.101098 -0.0615241 0
0.0653005 -0.0650539 0
0.0504627 -0.0504923 0
0.0740662 -0.0500391 0
0.0559232 -0.0408131 0
0.0504627 -0.0504923 0
0.0391636 -0.0393629 0
0.0559232 -0.0408131 0
0.0425358 -0.0329731 0
0.0305882 -0.0308883 0
0.0326477 -0.026523 0
0.0391636 -0.0393629 0
0.0425358 -0.0329731 0
0.0305882 -0.0308883 0
0.0235702 -0.0239516 0
0.0326477 -0.026523 0
0.024748 -0.020961 0
0.0235702 -0.0239516 0
0.0180535 -0.0184722 0
0.024748 -0.020961 0
0.0186602 -0.0164323 0
0.0180535 -0.0184722 0
0.0135477 -0.0139982 0
0.0186602 -0.0164323 0
0.0137437 -0.0126185 0
0.0135477 -0.0139982 0
0.0100609 -0.0105246 0
0.0137437 -0.0126185 0
0.00999603 -0.00961252 0
0.00731683 -0.00779138 0
0.00706413 -0.00719552 0
0.0100609 -0.0105246 0
0.00999603 -0.00961252 0
0.00527338 -0.00575612 0
0.00491163 -0.00537745 0
0.00731683 -0.00779138 0
0.00706413 -0.00719552 0
0.00527338 -0.00575612 0
0.00373863 -0.00422607 0
0.00491163 -0.00537745 0
0.00330294 -0.00399699 0
0.00373863 -0.00422607 0
0.00265334 -0.00314252 0
0.00330294 -0.00399699 0
0.00218028 -0.00300882 0
0.00265334 -0.00314252 0
0.00187517 -0.00236305 0
0.00218028 -0.00300882 0
0.00137711 -0.00229782 0
0.00187517 -0.00236305 0
0.00135896 -0.00184308 0
0.00137711 -0.00229782 0
0.000848075 -0.00181703 0
0.00135896 -0.00184308 0
0.00100167 -0.00148222 0
0.000848075 -0.00181703 0
0.000484615 -0.0014864 0
0.00100167 -0.00148222 0
0.000790294 -0.00126481 0
0.000484615 -0.0014864 0
0.000269921 -0.00127888 0
0.000790294 -0.00126481 0
0.00063937 -0.00111215 0
0.000269921 -0.00127888 0
0.000120486 -0.00114461 0
0.000570686 -0.00102998 0
5.392e-05 -0.00107937 0
0.00063937 -0.00111215 0
0.000120486 -0.00114461 0
0.00051202 -0.000961934 0
-2.65584e-05 -0.00102408 0
0.000570686 -0.00102998 0
5.392e-05 -0.00107937 0
0.00051202 -0.000961934 0
0.000502054 -0.000952925 0
-2.65584e-05 -0.00102408 0
-3.87741e-05 -0.000997742 0
0.000460319 -0.000924406 0
-7.83999e-05 -0.000952999 0
0.000502054 -0.000952925 0
-3.87741e-05 -0.000997742 0
0.000462588 -0.000954704 0
-1.89987e-05 -0.000950858 0
0.000460319 -0.000924406 0
-7.83999e-05 -0.000952999 0
0.000462588 -0.000954704 0
0.000408602 -0.000901212 0
-1.89987e-05 -0.000950858 0
-4.30909e-05 -0.000949534 0
0.000467163 -0.00094446 0
3.90002e-06 -0.00100385 0
0.000408602 -0.000901212 0
-4.30909e-05 -0.000949534 0
0.000467163 -0.00094446 0
0.000452761 -0.000929988 0
3.90002e-06 -0.00100385 0
-5.29513e-05 -0.000981926 0
0.000452761 -0.000929988 0
0.000530272 -0.00102548 0
-5.29513e-05 -0.000981926 0
7.68236e-05 -0.0010641 0
0.000530272 -0.00102548 0
0.000439369 -0.000936742 0
7.68236e-05 -0.0010641 0
3.43894e-05 -0.000937516 0
0.000439369 -0.000936742 0
0.000336213 -0.000804931 0
3.43894e-05 -0.000937516 0
0.000297204 -0.00114726 0
0.000336213 -0.000804931 0
0.00025476 -0.000568389 0
0.000297204 -0.00114726 0
0.000109907 -0.000579334 0
0.00025476 -0.000568389 0
0.000135168 -0.000457331 0
0.000109907 -0.000579334 0
3.51686e-05 -0.000917524 0
0.000135168 -0.000457331 0
0.000324433 -0.000284048 0
3.51686e-05 -0.000917524 0
0.000207129 -0.000755217 0
0.000324433 -0.000284048 0
0.000250314 -0.000369904 0
0.000207129 -0.000755217 0
-0.000170249 -0.000852411 0
0.000250314 -0.000369904 0
0.000166209 -0.000446741 0
-0.000170249 -0.000852411 0
9.86128e-05 -0.000798005 0
0.000166209 -0.000446741 0
-8.62979e-05 -0.00040019 0
9.86128e-05 -0.000798005 0
-2.25997e-05 -0.000914032 0
-2.45154e-05 -0.000871917 0
-2.38362e-05 -0.000872675 0
-2.66191e-05 -0.000493101 0
-2.65099e-05 -0.000496356 0
-2.66191e-05 -0.000493101 0
-2.65099e-05 -0.000496356 0
-3.09688e-05 -0.000837548 0
-3.14513e-05 -0.000840009 0
-3.09688e-05 -0.000837548 0
-3.14513e-05 -0.000840009 0
-3.66256e-05 -0.00055687 0
-3.6415e-05 -0.000560417 0
-3.66256e-05 -0.00055687 0
-3.6415e-05 -0.000560417 0
-4.21246e-05 -0.000818632 0
-4.3943e-05 -0.00082292 0
-4.21246e-05 -0.000818632 0
-4.3943e-05 -0.00082292 0
-4.96889e-05 -0.000615405 0
-5.0566e-05 -0.000619802 0
-4.96889e-05 -0.000615405 0
-5.0566e-05 -0.000619802 0
-5.63184e-05 -0.000815008 0
-5.83953e-05 -0.000820355 0
-6.54289e-05 -0.000673085 0
-5.63184e-05 -0.000815008 0
-6.65979e-05 -0.000678997 0
-5.83953e-05 -0.000820355 0
-6.54289e-05 -0.000673085 0
-6.65979e-05 -0.000678997 0
-7.48095e-05 -0.000822369 0
-7.59758e-05 -0.000829217 0
-7.48095e-05 -0.000822369 0
-7.59758e-05 -0.000829217 0
-8.67365e-05 -0.000723575 0
-8.71356e-05 -0.000732059 0
-8.67365e-05 -0.000723575 0
-8.71356e-05 -0.000732059 0
-0.000101315 -0.00082414 0
-0.000101766 -0.000834261 0
-0.000101315 -0.00082414 0
-0.000101766 -0.000834261 0
-0.00011954 -0.000750728 0
-0.000120277 -0.000763733 0
-0.00011954 -0.000750728 0
-0.000120277 -0.000763733 0
-0.000143161 -0.000802916 0
-0.000147179 -0.000819048 0
-0.000143161 -0.000802916 0
-0.000147179 -0.000819048 0
-0.000171624 -0.000748056 0
-0.000180889 -0.000767531 0
-0.000171624 -0.000748056 0
-0.000180889 -0.000767531 0
-0.000205852 -0.000760598 0
-0.000225269 -0.000783429 0
-0.000205852 -0.000760598 0
-0.000225269 -0.000783429 0
-0.000242401 -0.000731284 0
-0.000276064 -0.000755375 0
-0.000242401 -0.000731284 0
-0.000276064 -0.000755375 0
-0.000277952 -0.000717597 0
-0.000329555 -0.000740327 0
-0.000277952 -0.000717597 0
-0.000329555 -0.000740327 0
-0.000304342 -0.000727502 0
-0.000373964 -0.000743492 0
-0.000304342 -0.000727502 0
-0.000373964 -0.000743492 0
-0.000314218 -0.000700317 0
-0.00039553 -0.000704786 0
-0.000314218 -0.000700317 0
-0.00039553 -0.000704786 0
-0.000302293 -0.000771921 0
-0.000382212 -0.000761473 0
-0.000302293 -0.000771921 0
-0.000382212 -0.000761473 0
-0.000269715 -0.000744149 0
-0.000335435 -0.000722962 0
-0.000269715 -0.000744149 0
-0.000335435 -0.000722962 0
-0.000224984 -0.000896989 0
-0.000271257 -0.000869467 0
-0.000224984 -0.000896989 0
-0.000271257 -0.000869467 0
-0.000174906 -0.000848335 0
-0.000202788 -0.000821269 0
-0.000174906 -0.000848335 0
-0.000202788 -0.000821269 0
-0.000131384 -0.00106846 0
-0.000144851 -0.00104368 0
-0.000131384 -0.00106846 0
-0.000144851 -0.00104368 0
-8.99927e-05 -0.000940382 0
-9.44391e-05 -0.000922488 0
-8.99927e-05 -0.000940382 0
-9.44391e-05 -0.000922488 0
-6.72016e-05 -0.00121808 0
-6.87904e-05 -0.00120313 0
-6.72016e-05 -0.00121808 0
-6.87904e-05 -0.00120313 0
-4.12115e-05 -0.000964918 0
-3.97139e-05 -0.000954003 0
-4.12115e-05 -0.000964918 0
-3.97139e-05 -0.000954003 0
-2.99647e-05 -0.00135182 0
-2.98499e-05 -0.00134373 0
-2.99647e-05 -0.00135182 0
-2.98499e-05 -0.00134373 0
-1.27058e-05 -0.000933104 0
-1.06137e-05 -0.000929135 0
-1.27058e-05 -0.000933104 0
-1.06137e-05 -0.000929135 0
-1.61878e-05 -0.00150726 0
-1.53379e-05 -0.00150727 0
-1.61878e-05 -0.00150726 0
-1.53379e-05 -0.00150727 0
-1.45927e-05 -0.00084398 0
-1.43129e-05 -0.000843846 0
-1.45927e-05 -0.00084398 0
-1.43129e-05 -0.000843846 0
-1.9362e-05 -0.00171197 0
-1.80925e-05 -0.00171332 0
0.339558 -0.124374 0
0.214383 -0.0889932 0
0.262579 0.035144 0
0.19389 0.00462529 0
0.214383 -0.0889932 0
0.143686 -0.0750409 0
0.19389 0.00462529 0
0.138309 -0.0185874 0
0.101098 -0.0615241 0
0.101611 -0.0278129 0
0.143686 -0.0750409 0
0.138309 -0.0185874 0
0.0740662 -0.0500391 0
0.0755368 -0.0286689 0
0.101098 -0.0615241 0
0.101611 -0.0278129 0
0.0740662 -0.0500391 0
0.0559232 -0.0408131 0
0.0755368 -0.0286689 0
0.0575865 -0.0269061 0
0.0559232 -0.0408131 0
0.0425358 -0.0329731 0
0.0575865 -0.0269061 0
0.0438416 -0.0234689 0
0.0326477 -0.026523 0
0.0336455 -0.0199373 0
0.0425358 -0.0329731 0
0.0438416 -0.0234689 0
0.0326477 -0.026523 0
0.024748 -0.020961 0
0.0336455 -0.0199373 0
0.0254116 -0.0162643 0
0.024748 -0.020961 0
0.0186602 -0.0164323 0
0.0254116 -0.0162643 0
0.0191081 -0.0130289 0
0.0186602 -0.0164323 0
0.0137437 -0.0126185 0
0.0191081 -0.0130289 0
0.0140393 -0.0101225 0
0.0137437 -0.0126185 0
0.00999603 -0.00961252 0
0.0140393 -0.0101225 0
0.0101965 -0.00774217 0
0.00706413 -0.00719552 0
0.00720106 -0.005785 0
0.00999603 -0.00961252 0
0.0101965 -0.00774217 0
0.00491163 -0.00537745 0
0.00500496 -0.00429213 0
0.00706413 -0.00719552 0
0.00720106 -0.005785 0
0.00491163 -0.00537745 0
0.00330294 -0.00399699 0
0.00500496 -0.00429213 0
0.00336239 -0.00313609 0
0.00330294 -0.00399699 0
0.00218028 -0.00300882 0
0.00336239 -0.00313609 0
0.00221668 -0.00230284 0
0.00218028 -0.00300882 0
0.00137711 -0.00229782 0
0.00221668 -0.00230284 0
0.00140138 -0.00169231 0
0.00137711 -0.00229782 0
0.000848075 -0.00181703 0
0.00140138 -0.00169231 0
0.000868853 -0.00127758 0
0.000848075 -0.00181703 0
0.000484615 -0.0014864 0
0.000868853 -0.00127758 0
0.000502787 -0.000995395 0
0.000484615 -0.0014864 0
0.000269921 -0.00127888 0
0.000502787 -0.000995395 0
0.000279557 -0.000819171 0
0.000269921 -0.00127888 0
0.000120486 -0.00114461 0
0.000279557 -0.000819171 0