# vtk DataFile Version 3.0
#This file was generated by the deal.II library on 2016/12/20 at 10:56:59
ASCII
DATASET UNSTRUCTURED_GRID

POINTS 7408 double
-1 0.5 0
-0.978723 0.478723 0
-0.970149 0.5 0
-0.964976 0.485465 0
0.12 -0.5 0
0.15 -0.5 0
0.119014 -0.4708 0
0.15 -0.471429 0
0.11755 -0.441479 0
0.119014 -0.4708 0
0.15 -0.442857 0
0.15 -0.471429 0
0.117242 -0.412206 0
0.11755 -0.441479 0
0.15 -0.414286 0
0.15 -0.442857 0
0.118129 -0.383064 0
0.117242 -0.412206 0
0.15 -0.385714 0
0.15 -0.414286 0
0.12021 -0.354337 0
0.118129 -0.383064 0
0.15 -0.357143 0
0.15 -0.385714 0
0.121793 -0.32584 0
0.12021 -0.354337 0
0.15 -0.328571 0
0.15 -0.357143 0
0.122717 -0.296869 0
0.121793 -0.32584 0
0.15 -0.3 0
0.15 -0.328571 0
0.123759 -0.266752 0
0.122717 -0.296869 0
0.153091 -0.267708 0
0.15 -0.3 0
0.18456 -0.26795 0
0.153091 -0.267708 0
0.183333 -0.3 0
0.15 -0.3 0
0.216606 -0.268111 0
0.18456 -0.26795 0
0.216667 -0.3 0
0.183333 -0.3 0
0.24835 -0.26841 0
0.216606 -0.268111 0
0.25 -0.3 0
0.216667 -0.3 0
0.278782 -0.268564 0
0.24835 -0.26841 0
0.279437 -0.298917 0
0.25 -0.3 0
0.279638 -0.328111 0
0.279437 -0.298917 0
0.25 -0.328571 0
0.25 -0.3 0
0.27971 -0.356801 0
0.279638 -0.328111 0
0.25 -0.357143 0
0.25 -0.328571 0
0.279677 -0.385395 0
0.27971 -0.356801 0
0.25 -0.385714 0
0.25 -0.357143 0
0.279641 -0.413938 0
0.279677 -0.385395 0
0.25 -0.414286 0
0.25 -0.385714 0
0.279666 -0.442534 0
0.279641 -0.413938 0
0.25 -0.442857 0
0.25 -0.414286 0
0.279811 -0.471266 0
0.279666 -0.442534 0
0.25 -0.471429 0
0.25 -0.442857 0
0.28 -0.5 0
0.279811 -0.471266 0
0.25 -0.5 0
0.25 -0.471429 0
0.970149 0.5 0
0.970096 0.46978 0
1 0.5 0
1 0.469697 0
0.940299 0.5 0
0.940231 0.46984 0
0.970149 0.5 0
0.970096 0.46978 0
0.910448 0.5 0
0.910371 0.469856 0
0.940299 0.5 0
0.940231 0.46984 0
0.880597 0.5 0
0.880527 0.469909 0
0.910448 0.5 0
0.910371 0.469856 0
0.850746 0.5 0
0.850684 0.469926 0
0.880597 0.5 0
0.880527 0.469909 0
0.820896 0.5 0
0.820842 0.469978 0
0.850746 0.5 0
0.850684 0.469926 0
0.791045 0.5 0
0.791001 0.470016 0
0.820896 0.5 0
0.820842 0.469978 0
0.761194 0.5 0
0.761159 0.470055 0
0.791045 0.5 0
0.791001 0.470016 0
0.731343 0.5 0
0.731316 0.470091 0
0.761194 0.5 0
0.761159 0.470055 0
0.701493 0.5 0
0.701472 0.470118 0
0.731343 0.5 0
0.731316 0.470091 0
0.671642 0.5 0
0.671627 0.470134 0
0.701493 0.5 0
0.701472 0.470118 0
0.641791 0.5 0
0.64178 0.470142 0
0.671642 0.5 0
0.671627 0.470134 0
0.641791 0.5 0
0.61194 0.5 0
0.64178 0.470142 0
0.611934 0.470065 0
0.58209 0.5 0
0.582089 0.470002 0
0.61194 0.5 0
0.611934 0.470065 0
0.552239 0.5 0
0.552248 0.469853 0
0.58209 0.5 0
0.582089 0.470002 0
0.522388 0.5 0
0.522413 0.469718 0
0.552239 0.5 0
0.552248 0.469853 0
0.492537 0.5 0
0.492577 0.469656 0
0.522388 0.5 0
0.522413 0.469718 0
0.462687 0.5 0
0.462743 0.469571 0
0.492537 0.5 0
0.492577 0.469656 0
0.432836 0.5 0
0.432895 0.46963 0
0.462687 0.5 0
0.462743 0.469571 0
0.402985 0.5 0
0.403046 0.469669 0
0.432836 0.5 0
0.432895 0.46963 0
0.373134 0.5 0
0.373191 0.469745 0
0.402985 0.5 0
0.403046 0.469669 0
0.343284 0.5 0
0.343335 0.469723 0
0.373134 0.5 0
0.373191 0.469745 0
0.313433 0.5 0
0.313478 0.469741 0
0.343284 0.5 0
0.343335 0.469723 0
0.283582 0.5 0
0.283622 0.469783 0
0.313433 0.5 0
0.313478 0.469741 0
0.253731 0.5 0
0.253768 0.469742 0
0.283582 0.5 0
0.283622 0.469783 0
0.223881 0.5 0
0.223918 0.469737 0
0.253731 0.5 0
0.253768 0.469742 0
0.19403 0.5 0
0.194064 0.46981 0
0.223881 0.5 0
0.223918 0.469737 0
0.164179 0.5 0
0.16421 0.469881 0
0.19403 0.5 0
0.194064 0.46981 0
0.134328 0.5 0
0.134355 0.46994 0
0.164179 0.5 0
0.16421 0.469881 0
0.104478 0.5 0
0.1045 0.469997 0
0.134328 0.5 0
0.134355 0.46994 0
0.074627 0.5 0
0.074645 0.470051 0
0.104478 0.5 0
0.1045 0.469997 0
0.044776 0.5 0
0.04479 0.470093 0
0.074627 0.5 0
0.074645 0.470051 0
0.014925 0.5 0
0.014935 0.47012 0
0.044776 0.5 0
0.04479 0.470093 0
-0.014925 0.5 0
-0.014918 0.470135 0
0.014925 0.5 0
0.014935 0.47012 0
-0.044776 0.5 0
-0.044771 0.470143 0
-0.014925 0.5 0
-0.014918 0.470135 0
-0.074627 0.5 0
-0.074623 0.470146 0
-0.044776 0.5 0
-0.044771 0.470143 0
-0.104478 0.5 0
-0.104496 0.469979 0
-0.074627 0.5 0
-0.074623 0.470146 0
-0.134328 0.5 0
-0.134359 0.469935 0
-0.104478 0.5 0
-0.104496 0.469979 0
-0.164179 0.5 0
-0.164225 0.469839 0
-0.134328 0.5 0
-0.134359 0.469935 0
-0.164179 0.5 0
-0.19403 0.5 0
-0.164225 0.469839 0
-0.194083 0.469797 0
-0.223881 0.5 0
-0.22394 0.469753 0
-0.19403 0.5 0
-0.194083 0.469797 0
-0.253731 0.5 0
-0.253798 0.469819 0
-0.223881 0.5 0
-0.22394 0.469753 0
-0.283582 0.5 0
-0.283647 0.470019 0
-0.253731 0.5 0
-0.253798 0.469819 0
-0.313433 0.5 0
-0.313491 0.470151 0
-0.283582 0.5 0
-0.283647 0.470019 0
-0.343284 0.5 0
-0.343348 0.470381 0
-0.313433 0.5 0
-0.313491 0.470151 0
-0.343284 0.5 0
-0.373134 0.5 0
-0.343348 0.470381 0
-0.373195 0.470395 0
-0.373134 0.5 0
-0.402985 0.5 0
-0.373195 0.470395 0
-0.403049 0.470404 0
-0.432836 0.5 0
-0.432937 0.470297 0
-0.402985 0.5 0
-0.403049 0.470404 0
-0.462687 0.5 0
-0.462848 0.469995 0
-0.432836 0.5 0
-0.432937 0.470297 0
-0.492537 0.5 0
-0.492807 0.469765 0
-0.462687 0.5 0
-0.462848 0.469995 0
-0.522388 0.5 0
-0.52276 0.46958 0
-0.492537 0.5 0
-0.492807 0.469765 0
-0.552239 0.5 0
-0.55273 0.469652 0
-0.522388 0.5 0
-0.52276 0.46958 0
-0.58209 0.5 0
-0.582662 0.469731 0
-0.552239 0.5 0
-0.55273 0.469652 0
-0.61194 0.5 0
-0.612594 0.469999 0
-0.58209 0.5 0
-0.582662 0.469731 0
-0.641791 0.5 0
-0.642647 0.470419 0
-0.61194 0.5 0
-0.612594 0.469999 0
-0.671642 0.5 0
-0.672638 0.470543 0
-0.641791 0.5 0
-0.642647 0.470419 0
-0.701493 0.5 0
-0.702968 0.4698 0
-0.671642 0.5 0
-0.672638 0.470543 0
-0.701493 0.5 0
-0.731343 0.5 0
-0.702968 0.4698 0
-0.733232 0.468149 0
-0.820896 0.5 0
-0.822797 0.47207 0
-0.791045 0.5 0
-0.795702 0.469563 0
0.31 -0.5 0
0.309694 -0.471123 0
0.28 -0.5 0
0.279811 -0.471266 0
0.31 -0.5 0
0.34 -0.5 0
0.309694 -0.471123 0
0.339686 -0.471033 0
0.37 -0.5 0
0.369721 -0.471055 0
0.34 -0.5 0
0.339686 -0.471033 0
0.37 -0.5 0
0.4 -0.5 0
0.369721 -0.471055 0
0.399756 -0.470957 0
0.4 -0.5 0
0.43 -0.5 0
0.399756 -0.470957 0
0.429805 -0.470822 0
0.43 -0.5 0
0.46 -0.5 0
0.429805 -0.470822 0
0.459835 -0.470712 0
0.46 -0.5 0
0.49 -0.5 0
0.459835 -0.470712 0
0.489873 -0.470554 0
0.49 -0.5 0
0.52 -0.5 0
0.489873 -0.470554 0
0.519906 -0.470379 0
0.52 -0.5 0
0.55 -0.5 0
0.519906 -0.470379 0
0.54993 -0.470248 0
0.55 -0.5 0
0.58 -0.5 0
0.54993 -0.470248 0
0.579948 -0.470155 0
0.58 -0.5 0
0.61 -0.5 0
0.579948 -0.470155 0
0.609962 -0.470091 0
0.61 -0.5 0
0.64 -0.5 0
0.609962 -0.470091 0
0.639972 -0.47005 0
0.64 -0.5 0
0.67 -0.5 0
0.639972 -0.47005 0
0.66998 -0.470026 0
0.67 -0.5 0
0.7 -0.5 0
0.66998 -0.470026 0
0.699986 -0.470013 0
0.7 -0.5 0
0.73 -0.5 0
0.699986 -0.470013 0
0.72999 -0.470006 0
0.73 -0.5 0
0.76 -0.5 0
0.72999 -0.470006 0
0.759994 -0.470003 0
0.76 -0.5 0
0.79 -0.5 0
0.759994 -0.470003 0
0.78998 -0.469916 0
0.79 -0.5 0
0.82 -0.5 0
0.78998 -0.469916 0
0.819956 -0.469877 0
0.82 -0.5 0
0.85 -0.5 0
0.819956 -0.469877 0
0.849929 -0.469833 0
0.85 -0.5 0
0.88 -0.5 0
0.849929 -0.469833 0
0.879924 -0.469805 0
0.88 -0.5 0
0.91 -0.5 0
0.879924 -0.469805 0
0.909913 -0.469792 0
0.91 -0.5 0
0.94 -0.5 0
0.909913 -0.469792 0
0.939922 -0.469775 0
0.94 -0.5 0
0.97 -0.5 0
0.939922 -0.469775 0
0.969956 -0.46974 0
0.97 -0.5 0
1 -0.5 0
0.969956 -0.46974 0
1 -0.469697 0
-0.595745 0.095745 0
-0.574468 0.074468 0
-0.574431 0.117764 0
-0.553204 0.096309 0
-0.553191 0.053191 0
-0.53184 0.075023 0
-0.574468 0.074468 0
-0.553204 0.096309 0
-0.553191 0.053191 0
-0.531915 0.031915 0
-0.53184 0.075023 0
-0.510492 0.053733 0
-0.531915 0.031915 0
-0.510638 0.010638 0
-0.510492 0.053733 0
-0.489127 0.032461 0
-0.510638 0.010638 0
-0.489362 -0.010638 0
-0.489127 0.032461 0
-0.467791 0.011178 0
-0.489362 -0.010638 0
-0.468085 -0.031915 0
-0.467791 0.011178 0
-0.446536 -0.010172 0
-0.446809 -0.053191 0
-0.42524 -0.031466 0
-0.468085 -0.031915 0
-0.446536 -0.010172 0
-0.425532 -0.074468 0
-0.404012 -0.052824 0
-0.446809 -0.053191 0
-0.42524 -0.031466 0
-0.425532 -0.074468 0
-0.404255 -0.095745 0
-0.404012 -0.052824 0
-0.382783 -0.074175 0
-0.404255 -0.095745 0
-0.382979 -0.117021 0
-0.382783 -0.074175 0
-0.361545 -0.095511 0
-0.382979 -0.117021 0
-0.361702 -0.138298 0
-0.361545 -0.095511 0
-0.340288 -0.116831 0
-0.361702 -0.138298 0
-0.340426 -0.159574 0
-0.340288 -0.116831 0
-0.319034 -0.138159 0
-0.340426 -0.159574 0
-0.319149 -0.180851 0
-0.319034 -0.138159 0
-0.297766 -0.159484 0
-0.319149 -0.180851 0
-0.297872 -0.202128 0
-0.297766 -0.159484 0
-0.276489 -0.180797 0
-0.297872 -0.202128 0
-0.276596 -0.223404 0
-0.276489 -0.180797 0
-0.255087 -0.202105 0
-0.255319 -0.244681 0
-0.233674 -0.223466 0
-0.276596 -0.223404 0
-0.255087 -0.202105 0
-0.234043 -0.265957 0
-0.212119 -0.244916 0
-0.255319 -0.244681 0
-0.233674 -0.223466 0
-0.234043 -0.265957 0
-0.212766 -0.287234 0
-0.212119 -0.244916 0
-0.190657 -0.266392 0
-0.191489 -0.308511 0
-0.169261 -0.287934 0
-0.212766 -0.287234 0
-0.190657 -0.266392 0
-0.170213 -0.329787 0
-0.147854 -0.309624 0
-0.191489 -0.308511 0
-0.169261 -0.287934 0
-0.170213 -0.329787 0
-0.148936 -0.351064 0
-0.147854 -0.309624 0
-0.126431 -0.331364 0
-0.12766 -0.37234 0
-0.105256 -0.353368 0
-0.148936 -0.351064 0
-0.126431 -0.331364 0
-0.12766 -0.37234 0
-0.106383 -0.393617 0
-0.105256 -0.353368 0
-0.083924 -0.375263 0
-0.106383 -0.393617 0
-0.085106 -0.414894 0
-0.083924 -0.375263 0
-0.062097 -0.396824 0
-0.085106 -0.414894 0
-0.06383 -0.43617 0
-0.062097 -0.396824 0
-0.040132 -0.418076 0
-0.06383 -0.43617 0
-0.042553 -0.457447 0
-0.040132 -0.418076 0
-0.019646 -0.439891 0
-0.042553 -0.457447 0
-0.021277 -0.478723 0
-0.019646 -0.439891 0
-0.002475 -0.461393 0
-0.021277 -0.478723 0
0 -0.5 0
-0.002475 -0.461393 0
0.009599 -0.478226 0
0 -0.5 0
0.03 -0.5 0
0.009599 -0.478226 0
0.029922 -0.474701 0
0.03 -0.5 0
0.06 -0.5 0
0.029922 -0.474701 0
0.057397 -0.471689 0
0.06 -0.5 0
0.09 -0.5 0
0.057397 -0.471689 0
0.08796 -0.470463 0
0.09 -0.5 0
0.12 -0.5 0
0.08796 -0.470463 0
0.119014 -0.4708 0
[...]
POINT_DATA 7408
VECTORS momentum double
-0.00169729 0.000629712 0
-0.0140009 0.0129504 0
-0.0158906 0.000294301 0
-0.0221801 0.00731774 0
0.000112659 -0.000409121 0
8.0755e-05 -0.000416733 0
0.000164679 -0.000997739 0
6.84473e-05 -0.000939255 0
-1.77504e-05 -0.000752825 0
0.000164679 -0.000997739 0
8.58074e-05 -0.000781665 0
6.84473e-05 -0.000939255 0
0.000132211 -0.00128621 0
-1.77504e-05 -0.000752825 0
3.87216e-06 -0.00135538 0
8.58074e-05 -0.000781665 0
0.000257192 -0.00108897 0
0.000132211 -0.00128621 0
1.52026e-06 -0.00120459 0
3.87216e-06 -0.00135538 0
0.000299423 -0.00149544 0
0.000257192 -0.00108897 0
-3.35476e-05 -0.00142534 0
1.52026e-06 -0.00120459 0
0.00057887 -0.00125606 0
0.000299423 -0.00149544 0
1.04556e-05 -0.00121014 0
-3.35476e-05 -0.00142534 0
0.000417549 -0.0018328 0
0.00057887 -0.00125606 0
0.000127056 -0.000708817 0
1.04556e-05 -0.00121014 0
0.000127687 -0.00142132 0
0.000417549 -0.0018328 0
-0.0002256 -0.00132527 0
0.000127056 -0.000708817 0
7.70535e-05 -0.00163639 0
-0.0002256 -0.00132527 0
0.000326607 -0.00047922 0
0.000127056 -0.000708817 0
0.000261294 -0.00154873 0
7.70535e-05 -0.00163639 0
7.28678e-05 -0.000395135 0
0.000326607 -0.00047922 0
0.000633342 -0.00129502 0
0.000261294 -0.00154873 0
0.000144636 -0.000809402 0
7.28678e-05 -0.000395135 0
0.000320133 -0.00111171 0
0.000633342 -0.00129502 0
3.09552e-05 -0.00161431 0
0.000144636 -0.000809402 0
-0.000106704 -0.000944433 0
3.09552e-05 -0.00161431 0
-0.000105695 -0.00100266 0
0.000144636 -0.000809402 0
2.28806e-05 -0.00114868 0
-0.000106704 -0.000944433 0
2.76097e-05 -0.00104761 0
-0.000105695 -0.00100266 0
-7.79824e-06 -0.000710566 0
2.28806e-05 -0.00114868 0
-1.80731e-05 -0.000768114 0
2.76097e-05 -0.00104761 0
-1.70778e-06 -0.000981218 0
-7.79824e-06 -0.000710566 0
7.32348e-06 -0.000949495 0
-1.80731e-05 -0.000768114 0
-1.06012e-05 -0.000539633 0
-1.70778e-06 -0.000981218 0
-5.28855e-06 -0.00055677 0
7.32348e-06 -0.000949495 0
-1.93178e-05 -0.000895484 0
-1.06012e-05 -0.000539633 0
9.65066e-07 -0.000885056 0
-5.28855e-06 -0.00055677 0
-3.20793e-06 -0.000392114 0
-1.93178e-05 -0.000895484 0
-8.89683e-07 -0.000396656 0
9.65066e-07 -0.000885056 0
-9.49665e-05 -0.00065454 0
-8.5307e-05 -0.00173112 0
-8.7298e-05 -0.000654725 0
-7.48259e-05 -0.00173113 0
-0.000100103 -0.000655084 0
-9.36248e-05 -0.00173353 0
-9.49665e-05 -0.00065454 0
-8.5307e-05 -0.00173112 0
-0.000101418 -0.000654699 0
-9.45792e-05 -0.00173592 0
-0.000100103 -0.000655084 0
-9.36248e-05 -0.00173353 0
-0.000101147 -0.000653797 0
-9.47775e-05 -0.0017375 0
-0.000101418 -0.000654699 0
-9.45792e-05 -0.00173592 0
-9.74651e-05 -0.000653082 0
-9.01606e-05 -0.00173923 0
-0.000101147 -0.000653797 0
-9.47775e-05 -0.0017375 0
-9.1838e-05 -0.000651631 0
-8.4066e-05 -0.00174068 0
-9.74651e-05 -0.000653082 0
-9.01606e-05 -0.00173923 0
-8.18994e-05 -0.000650852 0
-7.45347e-05 -0.00174229 0
-9.1838e-05 -0.000651631 0
-8.4066e-05 -0.00174068 0
-7.03075e-05 -0.000649249 0
-6.27106e-05 -0.00174468 0
-8.18994e-05 -0.000650852 0
-7.45347e-05 -0.00174229 0
-5.41583e-05 -0.00064797 0
-4.94108e-05 -0.00174732 0
-7.03075e-05 -0.000649249 0
-6.27106e-05 -0.00174468 0
-3.64714e-05 -0.000647141 0
-3.35833e-05 -0.00175066 0
-5.41583e-05 -0.00064797 0
-4.94108e-05 -0.00174732 0
-1.49982e-05 -0.000645863 0
-1.65574e-05 -0.00175388 0
-3.64714e-05 -0.000647141 0
-3.35833e-05 -0.00175066 0
8.0268e-06 -0.000645096 0
-2.78045e-06 -0.00175843 0
-1.49982e-05 -0.000645863 0
-1.65574e-05 -0.00175388 0
8.0268e-06 -0.000645096 0
2.80806e-05 -0.000645659 0
-2.78045e-06 -0.00175843 0
1.19627e-05 -0.00176375 0
4.66883e-05 -0.00064598 0
2.30595e-05 -0.00177098 0
2.80806e-05 -0.000645659 0
1.19627e-05 -0.00176375 0
6.00046e-05 -0.000648659 0
3.21495e-05 -0.00177734 0
4.66883e-05 -0.00064598 0
2.30595e-05 -0.00177098 0
6.37043e-05 -0.000651309 0
4.29753e-05 -0.00178123 0
6.00046e-05 -0.000648659 0
3.21495e-05 -0.00177734 0
6.66619e-05 -0.000652511 0
4.99543e-05 -0.00178159 0
6.37043e-05 -0.000651309 0
4.29753e-05 -0.00178123 0
5.77029e-05 -0.000654492 0
4.96473e-05 -0.00178042 0
6.66619e-05 -0.000652511 0
4.99543e-05 -0.00178159 0
3.92709e-05 -0.00065508 0
4.29326e-05 -0.00177843 0
5.77029e-05 -0.000654492 0
4.96473e-05 -0.00178042 0
1.90163e-05 -0.000654153 0
2.88821e-05 -0.00177645 0
3.92709e-05 -0.00065508 0
4.29326e-05 -0.00177843 0
2.62172e-06 -0.000652376 0
9.90719e-06 -0.00177719 0
1.90163e-05 -0.000654153 0
2.88821e-05 -0.00177645 0
-1.13922e-05 -0.00065245 0
-8.71195e-06 -0.00177746 0
2.62172e-06 -0.000652376 0
9.90719e-06 -0.00177719 0
-2.40796e-05 -0.000652238 0
-1.9898e-05 -0.00178125 0
-1.13922e-05 -0.00065245 0
-8.71195e-06 -0.00177746 0
-2.92773e-05 -0.000652342 0
-2.9475e-05 -0.00178124 0
-2.40796e-05 -0.000652238 0
-1.9898e-05 -0.00178125 0
-2.29928e-05 -0.000653502 0
-2.84931e-05 -0.00177627 0
-2.92773e-05 -0.000652342 0
-2.9475e-05 -0.00178124 0
-1.57892e-05 -0.00065677 0
-1.78758e-05 -0.0017665 0
-2.29928e-05 -0.000653502 0
-2.84931e-05 -0.00177627 0
3.77878e-06 -0.000660523 0
1.53637e-05 -0.00175156 0
-1.57892e-05 -0.00065677 0
-1.78758e-05 -0.0017665 0
4.58357e-05 -0.000659138 0
7.10944e-05 -0.00173623 0
3.77878e-06 -0.000660523 0
1.53637e-05 -0.00175156 0
0.000121582 -0.000655758 0
0.000155751 -0.00171485 0
4.58357e-05 -0.000659138 0
7.10944e-05 -0.00173623 0
0.000231218 -0.000650676 0
0.000274931 -0.00168514 0
0.000121582 -0.000655758 0
0.000155751 -0.00171485 0
0.000383243 -0.000644139 0
0.000436134 -0.00164184 0
0.000231218 -0.000650676 0
0.000274931 -0.00168514 0
0.000580815 -0.000637175 0
0.000639741 -0.00158104 0
0.000383243 -0.000644139 0
0.000436134 -0.00164184 0
0.000820757 -0.000632563 0
0.000886597 -0.00149314 0
0.000580815 -0.000637175 0
0.000639741 -0.00158104 0
0.00109874 -0.000628244 0
0.00117994 -0.00137701 0
0.000820757 -0.000632563 0
0.000886597 -0.00149314 0
0.00138885 -0.000622708 0
0.00148457 -0.00121994 0
0.00109874 -0.000628244 0
0.00117994 -0.00137701 0
0.00167292 -0.000617499 0
0.00177901 -0.00101625 0
0.00138885 -0.000622708 0
0.00148457 -0.00121994 0
0.00185009 -0.000612032 0
0.00197966 -0.000751078 0
0.00167292 -0.000617499 0
0.00177901 -0.00101625 0
0.00189682 -0.000607164 0
0.00205523 -0.000420271 0
0.00185009 -0.000612032 0
0.00197966 -0.000751078 0
0.00163896 -0.000601194 0
0.00182624 -1.63723e-05 0
0.00189682 -0.000607164 0
0.00205523 -0.000420271 0
0.00163896 -0.000601194 0
0.00103898 -0.000594665 0
0.00182624 -1.63723e-05 0
0.00126794 0.000475763 0
-0.000206376 -0.000577893 0
7.12772e-05 0.00104972 0
0.00103898 -0.000594665 0
0.00126794 0.000475763 0
-0.00210116 -0.000559168 0
-0.00178017 0.00176506 0
-0.000206376 -0.000577893 0
7.12772e-05 0.00104972 0
-0.00515589 -0.000527958 0
-0.00480921 0.00260127 0
-0.00210116 -0.000559168 0
-0.00178017 0.00176506 0
-0.00930134 -0.000496146 0
-0.00894538 0.0036741 0
-0.00515589 -0.000527958 0
-0.00480921 0.00260127 0
-0.0153165 -0.000445122 0
-0.014976 0.00491474 0
-0.00930134 -0.000496146 0
-0.00894538 0.0036741 0
-0.0153165 -0.000445122 0
-0.0229559 -0.000393496 0
-0.014976 0.00491474 0
-0.0226804 0.00660616 0
-0.0229559 -0.000393496 0
-0.033402 -0.000324227 0
-0.0226804 0.00660616 0
-0.0331852 0.00855708 0
-0.0460555 -0.000259846 0
-0.0460237 0.0111944 0
-0.033402 -0.000324227 0
-0.0331852 0.00855708 0
-0.0626131 -0.000183343 0
-0.0626748 0.0141332 0
-0.0460555 -0.000259846 0
-0.0460237 0.0111944 0
-0.0817387 -0.000121015 0
-0.0822215 0.0178704 0
-0.0626131 -0.000183343 0
-0.0626748 0.0141332 0
-0.10557 -6.89708e-05 0
-0.106173 0.0212282 0
-0.0817387 -0.000121015 0
-0.0822215 0.0178704 0
-0.131485 -2.71496e-05 0
-0.132851 0.0255566 0
-0.10557 -6.89708e-05 0
-0.106173 0.0212282 0
-0.162897 -1.84139e-05 0
-0.163893 0.0289491 0
-0.131485 -2.71496e-05 0
-0.132851 0.0255566 0
-0.195533 8.32702e-05 0
-0.197898 0.034636 0
-0.162897 -1.84139e-05 0
-0.163893 0.0289491 0
-0.236546 -9.27012e-05 0
-0.236136 0.0385735 0
-0.195533 8.32702e-05 0
-0.197898 0.034636 0
-0.277771 0.0010147 0
-0.279597 0.0464877 0
-0.236546 -9.27012e-05 0
-0.236136 0.0385735 0
-0.331561 0.000981998 0
-0.326334 0.043289 0
-0.277771 0.0010147 0
-0.279597 0.0464877 0
-0.331561 0.000981998 0
-0.360804 0.000229585 0
-0.326334 0.043289 0
-0.374765 0.0295977 0
-0.315209 -0.0027164 0
-0.302759 -0.0459942 0
-0.356528 -0.00151058 0
-0.351379 -0.0590728 0
-1.95969e-05 -0.000399412 0
-3.93287e-05 -0.000894191 0
-3.20793e-06 -0.000392114 0
-1.93178e-05 -0.000895484 0
-1.95969e-05 -0.000399412 0
-4.5177e-05 -0.000402039 0
-3.93287e-05 -0.000894191 0
-5.2628e-05 -0.000896877 0
-6.73936e-05 -0.000405947 0
-7.3778e-05 -0.000894212 0
-4.5177e-05 -0.000402039 0
-5.2628e-05 -0.000896877 0
-6.73936e-05 -0.000405947 0
-8.33417e-05 -0.000407936 0
-7.3778e-05 -0.000894212 0
-9.22816e-05 -0.00089518 0
-8.33417e-05 -0.000407936 0
-9.81244e-05 -0.000411285 0
-9.22816e-05 -0.00089518 0
-0.000108317 -0.000896371 0
-9.81244e-05 -0.000411285 0
-0.000112157 -0.000412771 0
-0.000108317 -0.000896371 0
-0.000119378 -0.000900964 0
-0.000112157 -0.000412771 0
-0.000121831 -0.000413585 0
-0.000119378 -0.000900964 0
-0.000132212 -0.000905976 0
-0.000121831 -0.000413585 0
-0.000130823 -0.00041577 0
-0.000132212 -0.000905976 0
-0.000143848 -0.000911234 0
-0.000130823 -0.00041577 0
-0.000140777 -0.000418222 0
-0.000143848 -0.000911234 0
-0.000151608 -0.000915355 0
-0.000140777 -0.000418222 0
-0.000150615 -0.00042013 0
-0.000151608 -0.000915355 0
-0.000158086 -0.00091979 0
-0.000150615 -0.00042013 0
-0.000158622 -0.000421398 0
-0.000158086 -0.00091979 0
-0.00016361 -0.000923215 0
-0.000158622 -0.000421398 0
-0.000166427 -0.000422529 0
-0.00016361 -0.000923215 0
-0.000169066 -0.000926424 0
-0.000166427 -0.000422529 0
-0.000172887 -0.000422966 0
-0.000169066 -0.000926424 0
-0.00017322 -0.000929036 0
-0.000172887 -0.000422966 0
-0.000179519 -0.000423321 0
-0.00017322 -0.000929036 0
-0.000178465 -0.000931651 0
-0.000179519 -0.000423321 0
-0.000184119 -0.000423518 0
-0.000178465 -0.000931651 0
-0.000183093 -0.000934389 0
-0.000184119 -0.000423518 0
-0.000187235 -0.000423741 0
-0.000183093 -0.000934389 0
-0.000189527 -0.000937695 0
-0.000187235 -0.000423741 0
-0.000190624 -0.000424524 0
-0.000189527 -0.000937695 0
-0.00019473 -0.000940461 0
-0.000190624 -0.000424524 0
-0.000195228 -0.000425447 0
-0.00019473 -0.000940461 0
-0.000198647 -0.000943758 0
-0.000195228 -0.000425447 0
-0.000197934 -0.000426447 0
-0.000198647 -0.000943758 0
-0.000200451 -0.000947198 0
-0.000197934 -0.000426447 0
-0.000201153 -0.000427247 0
-0.000200451 -0.000947198 0
-0.000202031 -0.000950586 0
-0.000201153 -0.000427247 0
-0.000200285 -0.000427595 0
-0.000202031 -0.000950586 0
-0.000200663 -0.000954056 0
-0.000200285 -0.000427595 0
-0.000197615 -0.000428115 0
-0.000200663 -0.000954056 0
-0.000197995 -0.000956895 0
-0.000197615 -0.000428115 0
-0.000190465 -0.000428206 0
-0.000197995 -0.000956895 0
-0.00019109 -0.00095901 0
-0.000190465 -0.000428206 0
-0.000182736 -0.000428193 0
-0.00019109 -0.00095901 0
-0.000184149 -0.000959915 0
0.226429 -0.220816 0
0.143751 -0.138559 0
0.249691 -0.0915782 0
0.165118 -0.0869022 0
0.102613 -0.102 0
0.118221 -0.0732292 0
0.143751 -0.138559 0
0.165118 -0.0869022 0
0.102613 -0.102 0
0.079971 -0.0795714 0
0.118221 -0.0732292 0
0.0901612 -0.0618464 0
0.079971 -0.0795714 0
0.0648374 -0.0648694 0
0.0901612 -0.0618464 0
0.0718565 -0.0526052 0
0.0648374 -0.0648694 0
0.0544646 -0.0545878 0
0.0718565 -0.0526052 0
0.0592832 -0.0458638 0
0.0544646 -0.0545878 0
0.0467501 -0.0469859 0
0.0592832 -0.0458638 0
0.0501856 -0.0404298 0
0.040817 -0.0411022 0
0.043243 -0.0360629 0
0.0467501 -0.0469859 0
0.0501856 -0.0404298 0
0.0359928 -0.0363284 0
0.0377307 -0.0323503 0
0.040817 -0.0411022 0
0.043243 -0.0360629 0
0.0359928 -0.0363284 0
0.0319012 -0.0322676 0
0.0377307 -0.0323503 0
0.033107 -0.0290866 0
0.0319012 -0.0322676 0
0.0283115 -0.0287033 0
0.033107 -0.0290866 0
0.0291333 -0.0261205 0
0.0283115 -0.0287033 0
0.025055 -0.0254604 0
0.0291333 -0.0261205 0
0.0255655 -0.0233549 0
0.025055 -0.0254604 0
0.0220729 -0.0224895 0
0.0255655 -0.0233549 0
0.0223404 -0.0207594 0
0.0220729 -0.0224895 0
0.0192977 -0.0197208 0
0.0223404 -0.0207594 0
0.019365 -0.0182932 0
0.0192977 -0.0197208 0
0.0167408 -0.0171698 0
0.019365 -0.0182932 0
0.0166533 -0.0159916 0
0.0167408 -0.0171698 0
0.0143771 -0.0148102 0
0.0166533 -0.0159916 0
0.0141542 -0.0138439 0
0.0122509 -0.0126784 0
0.0119189 -0.0118905 0
0.0143771 -0.0148102 0
0.0141542 -0.0138439 0
0.0103275 -0.0107511 0
0.00987267 -0.0101078 0
0.0122509 -0.0126784 0
0.0119189 -0.0118905 0
0.0103275 -0.0107511 0
0.00865916 -0.00909262 0
0.00987267 -0.0101078 0
0.0081257 -0.00854007 0
0.00717167 -0.00762298 0
0.00658363 -0.00715336 0
0.00865916 -0.00909262 0
0.0081257 -0.00854007 0
0.00593767 -0.00642044 0
0.00536057 -0.0059976 0
0.00717167 -0.00762298 0
0.00658363 -0.00715336 0
0.00593767 -0.00642044 0
0.00484262 -0.00532749 0
0.00536057 -0.0059976 0
0.00425479 -0.00502256 0
0.00404392 -0.00451692 0
0.00341731 -0.00427864 0
0.00484262 -0.00532749 0
0.00425479 -0.00502256 0
0.00404392 -0.00451692 0
0.0033172 -0.00379455 0
0.00341731 -0.00427864 0
0.0026539 -0.00357736 0
0.0033172 -0.00379455 0
0.00280412 -0.00329523 0
0.0026539 -0.00357736 0
0.0022032 -0.00308942 0
0.00280412 -0.00329523 0
0.00220303 -0.0026992 0
0.0022032 -0.00308942 0
0.00168617 -0.00244017 0
0.00220303 -0.0026992 0
0.00164458 -0.00209403 0
0.00168617 -0.00244017 0
0.00154436 -0.00221602 0
0.00164458 -0.00209403 0
0.00109698 -0.00142591 0
0.00154436 -0.00221602 0
0.00104502 -0.0012648 0
0.00109698 -0.00142591 0
0.000509086 -0.000627026 0
0.00104502 -0.0012648 0
0.000796202 -0.00132064 0
0.000509086 -0.000627026 0
0.000996823 -0.000281675 0
0.000796202 -0.00132064 0
0.000907953 -0.00101485 0
0.000996823 -0.000281675 0
0.000797429 -0.000384125 0
0.000907953 -0.00101485 0
0.000386884 -0.00100286 0
0.000797429 -0.000384125 0
0.000571845 -0.000458562 0
0.000386884 -0.00100286 0
0.000486642 -0.000913288 0
0.000571845 -0.000458562 0
0.000112659 -0.000409121 0
0.000486642 -0.000913288 0
0.000164679 -0.000997739 0
-0.00019109 -0.00095901 0
-0.000184149 -0.000959915 0
-0.000192295 -0.000665698 0
-0.000186094 -0.00066927 0
-0.000192295 -0.000665698 0
-0.000186094 -0.00066927 0
-0.00019708 -0.00109513 0
-0.000191589 -0.00109809 0
-0.00019708 -0.00109513 0
-0.000191589 -0.00109809 0
-0.000204671 -0.000904715 0
-0.000198564 -0.000909097 0
-0.000204671 -0.000904715 0
-0.000198564 -0.000909097 0
-0.000213523 -0.00125669 0
-0.000209523 -0.00126219 0
-0.000213523 -0.00125669 0
-0.000209523 -0.00126219 0
-0.000225458 -0.001147 0
-0.000220722 -0.00115304 0
-0.000225458 -0.001147 0
-0.000220722 -0.00115304 0
-0.000237563 -0.0014395 0
-0.000234395 -0.00144687 0
-0.000253156 -0.00139173 0
-0.000237563 -0.0014395 0
-0.000249736 -0.00139998 0
-0.000234395 -0.00144687 0
-0.000253156 -0.00139173 0
-0.000249736 -0.00139998 0
-0.000270293 -0.00163426 0
-0.000267768 -0.0016436 0
-0.000270293 -0.00163426 0
-0.000267768 -0.0016436 0
-0.000290984 -0.00162912 0
-0.000288857 -0.00164006 0
-0.000290984 -0.00162912 0
-0.000288857 -0.00164006 0
-0.000315515 -0.00182267 0
-0.000314832 -0.00183491 0
-0.000315515 -0.00182267 0
-0.000314832 -0.00183491 0
-0.000344533 -0.00184029 0
-0.000345772 -0.00185485 0
-0.000344533 -0.00184029 0
-0.000345772 -0.00185485 0
-0.000380092 -0.00197839 0
-0.000386544 -0.00199526 0
-0.000380092 -0.00197839 0
-0.000386544 -0.00199526 0
-0.000421183 -0.00199811 0
-0.000435139 -0.0020174 0
-0.000421183 -0.00199811 0
-0.000435139 -0.0020174 0
-0.00046882 -0.00206806 0
-0.000495574 -0.00208976 0
-0.00046882 -0.00206806 0
-0.000495574 -0.00208976 0
-0.000518304 -0.00206981 0
-0.000562266 -0.00209199 0
-0.000518304 -0.00206981 0
-0.000562266 -0.00209199 0
-0.000565146 -0.00205648 0
-0.000630182 -0.00207679 0
-0.000565146 -0.00205648 0
-0.000630182 -0.00207679 0
-0.000598274 -0.00202919 0
-0.000684087 -0.00204272 0
-0.000598274 -0.00202919 0
-0.000684087 -0.00204272 0
-0.00060816 -0.00193018 0
-0.000707415 -0.00193265 0
-0.00060816 -0.00193018 0
-0.000707415 -0.00193265 0
-0.000587267 -0.0018956 0
-0.000685219 -0.00188403 0
-0.000587267 -0.0018956 0
-0.000685219 -0.00188403 0
-0.000537547 -0.00174041 0
-0.000619767 -0.00171903 0
-0.000537547 -0.00174041 0
-0.000619767 -0.00171903 0
-0.000469376 -0.00175056 0
-0.000529369 -0.00172333 0
-0.000469376 -0.00175056 0
-0.000529369 -0.00172333 0
-0.00039328 -0.00156266 0
-0.000431303 -0.0015358 0
-0.00039328 -0.00156266 0
-0.000431303 -0.0015358 0
-0.000323497 -0.00165004 0
-0.000343246 -0.00162486 0
-0.000323497 -0.00165004 0
-0.000343246 -0.00162486 0
-0.000257679 -0.00141152 0
-0.000264742 -0.00139253 0
-0.000257679 -0.00141152 0
-0.000264742 -0.00139253 0
-0.000212364 -0.00159199 0
-0.000213402 -0.00157506 0
-0.000212364 -0.00159199 0
-0.000213402 -0.00157506 0
-0.000165762 -0.00126535 0
-0.000161096 -0.00125172 0
-0.000165762 -0.00126535 0
-0.000161096 -0.00125172 0
-0.00013511 -0.00158136 0
-0.000129778 -0.00157015 0
-0.00013511 -0.00158136 0
-0.000129778 -0.00157015 0
-0.000101358 -0.0011107 0
-9.24036e-05 -0.00110347 0
-0.000101358 -0.0011107 0
-9.24036e-05 -0.00110347 0
-9.2247e-05 -0.00162473 0
-8.34146e-05 -0.00162173 0
-9.2247e-05 -0.00162473 0
-8.34146e-05 -0.00162173 0
-8.37136e-05 -0.000922517 0
-7.45649e-05 -0.000919888 0
-8.37136e-05 -0.000922517 0
-7.45649e-05 -0.000919888 0
-8.5307e-05 -0.00173112 0
-7.48259e-05 -0.00173113 0
0.249691 -0.0915782 0
0.165118 -0.0869022 0
0.208534 0.000268462 0
0.157531 -0.0278015 0
0.118221 -0.0732292 0
0.118626 -0.0362773 0
0.165118 -0.0869022 0
0.157531 -0.0278015 0
0.118221 -0.0732292 0
0.0901612 -0.0618464 0
0.118626 -0.0362773 0
0.0922265 -0.0373965 0
0.0901612 -0.0618464 0
0.0718565 -0.0526052 0
0.0922265 -0.0373965 0
0.0744171 -0.0358948 0
0.0718565 -0.0526052 0
0.0592832 -0.0458638 0
0.0744171 -0.0358948 0
0.0615014 -0.033614 0
0.0592832 -0.0458638 0
0.0501856 -0.0404298 0
0.0615014 -0.033614 0
0.0521867 -0.0312234 0
0.043243 -0.0360629 0
0.0448517 -0.028836 0
0.0501856 -0.0404298 0
0.0521867 -0.0312234 0
0.0377307 -0.0323503 0
0.0390529 -0.0266077 0
0.043243 -0.0360629 0
0.0448517 -0.028836 0
0.0377307 -0.0323503 0
0.033107 -0.0290866 0
0.0390529 -0.0266077 0
0.0341285 -0.0243793 0
0.033107 -0.0290866 0
0.0291333 -0.0261205 0
0.0341285 -0.0243793 0
0.0299065 -0.0222234 0
0.0291333 -0.0261205 0
0.0255655 -0.0233549 0
0.0299065 -0.0222234 0
0.0261284 -0.0200711 0
0.0255655 -0.0233549 0
0.0223404 -0.0207594 0
0.0261284 -0.0200711 0
0.0227309 -0.0179573 0
0.0223404 -0.0207594 0
0.019365 -0.0182932 0
0.0227309 -0.0179573 0
0.0196136 -0.0158907 0
0.019365 -0.0182932 0
0.0166533 -0.0159916 0
0.0196136 -0.0158907 0
0.0167567 -0.0139133 0
0.0166533 -0.0159916 0
0.0141542 -0.0138439 0
0.0167567 -0.0139133 0
0.0141594 -0.0120378 0
0.0119189 -0.0118905 0
0.0118378 -0.0102783 0
0.0141542 -0.0138439 0
0.0141594 -0.0120378 0
0.00987267 -0.0101078 0
0.00977539 -0.00868563 0
0.0119189 -0.0118905 0
0.0118378 -0.0102783 0
0.00987267 -0.0101078 0
0.0081257 -0.00854007 0
0.00977539 -0.00868563 0
0.00798988 -0.0072762 0
0.00658363 -0.00715336 0
0.00640281 -0.00608652 0
0.0081257 -0.00854007 0
0.00798988 -0.0072762 0
0.00536057 -0.0059976 0
0.00510256 -0.00505544 0
0.00658363 -0.00715336 0
0.00640281 -0.00608652 0
0.00536057 -0.0059976 0
0.00425479 -0.00502256 0
0.00510256 -0.00505544 0
0.00392497 -0.00412778 0
0.00341731 -0.00427864 0
0.00307762 -0.00336765 0
0.00425479 -0.00502256 0
0.00392497 -0.00412778 0
0.00341731 -0.00427864 0
0.0026539 -0.00357736 0
0.00307762 -0.00336765 0
0.0022972 -0.0028708 0
0.0026539 -0.00357736 0
0.0022032 -0.00308942 0
0.0022972 -0.0028708 0
0.00196486 -0.00238061 0
0.0022032 -0.00308942 0
0.00168617 -0.00244017 0
0.00196486 -0.00238061 0
0.001341 -0.00204467 0
0.00168617 -0.00244017 0
0.00154436 -0.00221602 0
0.001341 -0.00204467 0
0.00132087 -0.00167606 0
0.001033 -0.000514799 0
0.000907953 -0.00101485 0
0.000493971 -0.000954919 0
0.000386884 -0.00100286 0
0.000493971 -0.000954919 0
0.000386884 -0.00100286 0
0.000357982 -0.000994541 0
0.000486642 -0.000913288 0
0.000357982 -0.000994541 0
0.000486642 -0.000913288 0