# vtk DataFile Version 3.0
#This file was generated by the deal.II library on 2016/12/20 at 10:56:46
ASCII
DATASET UNSTRUCTURED_GRID

POINTS 7264 double
-1 0.5 0
-0.978723 0.478723 0
-0.970149 0.5 0
-0.964976 0.485465 0
0.12 -0.5 0
0.15 -0.5 0
0.119014 -0.4708 0
0.15 -0.471429 0
0.11755 -0.441479 0
0.119014 -0.4708 0
0.15 -0.442857 0
0.15 -0.471429 0
0.117242 -0.412206 0
0.11755 -0.441479 0
0.15 -0.414286 0
0.15 -0.442857 0
0.118129 -0.383064 0
0.117242 -0.412206 0
0.15 -0.385714 0
0.15 -0.414286 0
0.12021 -0.354337 0
0.118129 -0.383064 0
0.15 -0.357143 0
0.15 -0.385714 0
0.121793 -0.32584 0
0.12021 -0.354337 0
0.15 -0.328571 0
0.15 -0.357143 0
0.122717 -0.296869 0
0.121793 -0.32584 0
0.15 -0.3 0
0.15 -0.328571 0
0.123759 -0.266752 0
0.122717 -0.296869 0
0.153091 -0.267708 0
0.15 -0.3 0
0.18456 -0.26795 0
0.153091 -0.267708 0
0.183333 -0.3 0
0.15 -0.3 0
0.216606 -0.268111 0
0.18456 -0.26795 0
0.216667 -0.3 0
0.183333 -0.3 0
0.24835 -0.26841 0
0.216606 -0.268111 0
0.25 -0.3 0
0.216667 -0.3 0
0.278782 -0.268564 0
0.24835 -0.26841 0
0.279437 -0.298917 0
0.25 -0.3 0
0.279638 -0.328111 0
0.279437 -0.298917 0
0.25 -0.328571 0
0.25 -0.3 0
0.27971 -0.356801 0
0.279638 -0.328111 0
0.25 -0.357143 0
0.25 -0.328571 0
0.279677 -0.385395 0
0.27971 -0.356801 0
0.25 -0.385714 0
0.25 -0.357143 0
0.279641 -0.413938 0
0.279677 -0.385395 0
0.25 -0.414286 0
0.25 -0.385714 0
0.279666 -0.442534 0
0.279641 -0.413938 0
0.25 -0.442857 0
0.25 -0.414286 0
0.279811 -0.471266 0
0.279666 -0.442534 0
0.25 -0.471429 0
0.25 -0.442857 0
0.28 -0.5 0
0.279811 -0.471266 0
0.25 -0.5 0
0.25 -0.471429 0
0.970149 0.5 0
0.970096 0.46978 0
1 0.5 0
1 0.469697 0
0.940299 0.5 0
0.940231 0.46984 0
0.970149 0.5 0
0.970096 0.46978 0
0.910448 0.5 0
0.910371 0.469856 0
0.940299 0.5 0
0.940231 0.46984 0
0.880597 0.5 0
0.880527 0.469909 0
0.910448 0.5 0
0.910371 0.469856 0
0.850746 0.5 0
0.850684 0.469926 0
0.880597 0.5 0
0.880527 0.469909 0
0.820896 0.5 0
0.820842 0.469978 0
0.850746 0.5 0
0.850684 0.469926 0
0.791045 0.5 0
0.791001 0.470016 0
0.820896 0.5 0
0.820842 0.469978 0
0.761194 0.5 0
0.761159 0.470055 0
0.791045 0.5 0
0.791001 0.470016 0
0.731343 0.5 0
0.731316 0.470091 0
0.761194 0.5 0
0.761159 0.470055 0
0.701493 0.5 0
0.701472 0.470118 0
0.731343 0.5 0
0.731316 0.470091 0
0.671642 0.5 0
0.671627 0.470134 0
0.701493 0.5 0
0.701472 0.470118 0
0.641791 0.5 0
0.64178 0.470142 0
0.671642 0.5 0
0.671627 0.470134 0
0.641791 0.5 0
0.61194 0.5 0
0.64178 0.470142 0
0.611934 0.470065 0
0.58209 0.5 0
0.582089 0.470002 0
0.61194 0.5 0
0.611934 0.470065 0
0.552239 0.5 0
0.552248 0.469853 0
0.58209 0.5 0
0.582089 0.470002 0
0.522388 0.5 0
0.522413 0.469718 0
0.552239 0.5 0
0.552248 0.469853 0
0.492537 0.5 0
0.492577 0.469656 0
0.522388 0.5 0
0.522413 0.469718 0
0.462687 0.5 0
0.462743 0.469571 0
0.492537 0.5 0
0.492577 0.469656 0
0.432836 0.5 0
0.432895 0.46963 0
0.462687 0.5 0
0.462743 0.469571 0
0.402985 0.5 0
0.403046 0.469669 0
0.432836 0.5 0
0.432895 0.46963 0
0.373134 0.5 0
0.373191 0.469745 0
0.402985 0.5 0
0.403046 0.469669 0
0.343284 0.5 0
0.343335 0.469723 0
0.373134 0.5 0
0.373191 0.469745 0
0.313433 0.5 0
0.313478 0.469741 0
0.343284 0.5 0
0.343335 0.469723 0
0.283582 0.5 0
0.283622 0.469783 0
0.313433 0.5 0
0.313478 0.469741 0
0.253731 0.5 0
0.253768 0.469742 0
0.283582 0.5 0
0.283622 0.469783 0
0.223881 0.5 0
0.223918 0.469737 0
0.253731 0.5 0
0.253768 0.469742 0
0.19403 0.5 0
0.194064 0.46981 0
0.223881 0.5 0
0.223918 0.469737 0
0.164179 0.5 0
0.16421 0.469881 0
0.19403 0.5 0
0.194064 0.46981 0
0.134328 0.5 0
0.134355 0.46994 0
0.164179 0.5 0
0.16421 0.469881 0
0.104478 0.5 0
0.1045 0.469997 0
0.134328 0.5 0
0.134355 0.46994 0
0.074627 0.5 0
0.074645 0.470051 0
0.104478 0.5 0
0.1045 0.469997 0
0.044776 0.5 0
0.04479 0.470093 0
0.074627 0.5 0
0.074645 0.470051 0
0.014925 0.5 0
0.014935 0.47012 0
0.044776 0.5 0
0.04479 0.470093 0
-0.014925 0.5 0
-0.014918 0.470135 0
0.014925 0.5 0
0.014935 0.47012 0
-0.044776 0.5 0
-0.044771 0.470143 0
-0.014925 0.5 0
-0.014918 0.470135 0
-0.074627 0.5 0
-0.074623 0.470146 0
-0.044776 0.5 0
-0.044771 0.470143 0
-0.104478 0.5 0
-0.104496 0.469979 0
-0.074627 0.5 0
-0.074623 0.470146 0
-0.134328 0.5 0
-0.134359 0.469935 0
-0.104478 0.5 0
-0.104496 0.469979 0
-0.164179 0.5 0
-0.164225 0.469839 0
-0.134328 0.5 0
-0.134359 0.469935 0
-0.164179 0.5 0
-0.19403 0.5 0
-0.164225 0.469839 0
-0.194083 0.469797 0
-0.223881 0.5 0
-0.22394 0.469753 0
-0.19403 0.5 0
-0.194083 0.469797 0
-0.253731 0.5 0
-0.253798 0.469819 0
-0.223881 0.5 0
-0.22394 0.469753 0
-0.283582 0.5 0
-0.283647 0.470019 0
-0.253731 0.5 0
-0.253798 0.469819 0
-0.313433 0.5 0
-0.313491 0.470151 0
-0.283582 0.5 0
-0.283647 0.470019 0
-0.343284 0.5 0
-0.343348 0.470381 0
-0.313433 0.5 0
-0.313491 0.470151 0
-0.343284 0.5 0
-0.373134 0.5 0
-0.343348 0.470381 0
-0.373195 0.470395 0
-0.373134 0.5 0
-0.402985 0.5 0
-0.373195 0.470395 0
-0.403049 0.470404 0
-0.432836 0.5 0
-0.432937 0.470297 0
-0.402985 0.5 0
-0.403049 0.470404 0
-0.462687 0.5 0
-0.462848 0.469995 0
-0.432836 0.5 0
-0.432937 0.470297 0
-0.492537 0.5 0
-0.492807 0.469765 0
-0.462687 0.5 0
-0.462848 0.469995 0
-0.522388 0.5 0
-0.52276 0.46958 0
-0.492537 0.5 0
-0.492807 0.469765 0
-0.552239 0.5 0
-0.55273 0.469652 0
-0.522388 0.5 0
-0.52276 0.46958 0
-0.58209 0.5 0
-0.582662 0.469731 0
-0.552239 0.5 0
-0.55273 0.469652 0
-0.61194 0.5 0
-0.612594 0.469999 0
-0.58209 0.5 0
-0.582662 0.469731 0
-0.641791 0.5 0
-0.642647 0.470419 0
-0.61194 0.5 0
-0.612594 0.469999 0
-0.671642 0.5 0
-0.672638 0.470543 0
-0.641791 0.5 0
-0.642647 0.470419 0
-0.701493 0.5 0
-0.702968 0.4698 0
-0.671642 0.5 0
-0.672638 0.470543 0
-0.820896 0.5 0
-0.822797 0.47207 0
-0.791045 0.5 0
-0.795702 0.469563 0
0.31 -0.5 0
0.309694 -0.471123 0
0.28 -0.5 0
0.279811 -0.471266 0
0.31 -0.5 0
0.34 -0.5 0
0.309694 -0.471123 0
0.339686 -0.471033 0
0.37 -0.5 0
0.369721 -0.471055 0
0.34 -0.5 0
0.339686 -0.471033 0
0.37 -0.5 0
0.4 -0.5 0
0.369721 -0.471055 0
0.399756 -0.470957 0
0.4 -0.5 0
0.43 -0.5 0
0.399756 -0.470957 0
0.429805 -0.470822 0
0.43 -0.5 0
0.46 -0.5 0
0.429805 -0.470822 0
0.459835 -0.470712 0
0.46 -0.5 0
0.49 -0.5 0
0.459835 -0.470712 0
0.489873 -0.470554 0
0.49 -0.5 0
0.52 -0.5 0
0.489873 -0.470554 0
0.519906 -0.470379 0
0.52 -0.5 0
0.55 -0.5 0
0.519906 -0.470379 0
0.54993 -0.470248 0
0.55 -0.5 0
0.58 -0.5 0
0.54993 -0.470248 0
0.579948 -0.470155 0
0.58 -0.5 0
0.61 -0.5 0
0.579948 -0.470155 0
0.609962 -0.470091 0
0.61 -0.5 0
0.64 -0.5 0
0.609962 -0.470091 0
0.639972 -0.47005 0
0.64 -0.5 0
0.67 -0.5 0
0.639972 -0.47005 0
0.66998 -0.470026 0
0.67 -0.5 0
0.7 -0.5 0
0.66998 -0.470026 0
0.699986 -0.470013 0
0.7 -0.5 0
0.73 -0.5 0
0.699986 -0.470013 0
0.72999 -0.470006 0
0.73 -0.5 0
0.76 -0.5 0
0.72999 -0.470006 0
0.759994 -0.470003 0
0.76 -0.5 0
0.79 -0.5 0
0.759994 -0.470003 0
0.78998 -0.469916 0
0.79 -0.5 0
0.82 -0.5 0
0.78998 -0.469916 0
0.819956 -0.469877 0
0.82 -0.5 0
0.85 -0.5 0
0.819956 -0.469877 0
0.849929 -0.469833 0
0.85 -0.5 0
0.88 -0.5 0
0.849929 -0.469833 0
0.879924 -0.469805 0
0.88 -0.5 0
0.91 -0.5 0
0.879924 -0.469805 0
0.909913 -0.469792 0
0.91 -0.5 0
0.94 -0.5 0
0.909913 -0.469792 0
0.939922 -0.469775 0
0.94 -0.5 0
0.97 -0.5 0
0.939922 -0.469775 0
0.969956 -0.46974 0
0.97 -0.5 0
1 -0.5 0
0.969956 -0.46974 0
1 -0.469697 0
-0.702128 0.202128 0
-0.680851 0.180851 0
-0.680976 0.2243 0
-0.659597 0.203254 0
-0.680851 0.180851 0
-0.659574 0.159574 0
-0.659597 0.203254 0
-0.638233 0.18203 0
-0.638298 0.138298 0
-0.616915 0.16063 0
-0.659574 0.159574 0
-0.638233 0.18203 0
-0.617021 0.117021 0
-0.595665 0.139192 0
-0.638298 0.138298 0
-0.616915 0.16063 0
-0.617021 0.117021 0
-0.595745 0.095745 0
-0.595665 0.139192 0
-0.574431 0.117764 0
-0.595745 0.095745 0
-0.574468 0.074468 0
-0.574431 0.117764 0
-0.553204 0.096309 0
-0.553191 0.053191 0
-0.53184 0.075023 0
-0.574468 0.074468 0
-0.553204 0.096309 0
-0.553191 0.053191 0
-0.531915 0.031915 0
-0.53184 0.075023 0
-0.510492 0.053733 0
-0.531915 0.031915 0
-0.510638 0.010638 0
-0.510492 0.053733 0
-0.489127 0.032461 0
-0.510638 0.010638 0
-0.489362 -0.010638 0
-0.489127 0.032461 0
-0.467791 0.011178 0
-0.489362 -0.010638 0
-0.468085 -0.031915 0
-0.467791 0.011178 0
-0.446536 -0.010172 0
-0.446809 -0.053191 0
-0.42524 -0.031466 0
-0.468085 -0.031915 0
-0.446536 -0.010172 0
-0.425532 -0.074468 0
-0.404012 -0.052824 0
-0.446809 -0.053191 0
-0.42524 -0.031466 0
-0.425532 -0.074468 0
-0.404255 -0.095745 0
-0.404012 -0.052824 0
-0.382783 -0.074175 0
-0.404255 -0.095745 0
-0.382979 -0.117021 0
-0.382783 -0.074175 0
-0.361545 -0.095511 0
-0.382979 -0.117021 0
-0.361702 -0.138298 0
-0.361545 -0.095511 0
-0.340288 -0.116831 0
-0.361702 -0.138298 0
-0.340426 -0.159574 0
-0.340288 -0.116831 0
-0.319034 -0.138159 0
-0.340426 -0.159574 0
-0.319149 -0.180851 0
-0.319034 -0.138159 0
-0.297766 -0.159484 0
-0.319149 -0.180851 0
-0.297872 -0.202128 0
-0.297766 -0.159484 0
-0.276489 -0.180797 0
-0.297872 -0.202128 0
-0.276596 -0.223404 0
-0.276489 -0.180797 0
-0.255087 -0.202105 0
-0.255319 -0.244681 0
-0.233674 -0.223466 0
-0.276596 -0.223404 0
-0.255087 -0.202105 0
-0.234043 -0.265957 0
-0.212119 -0.244916 0
-0.255319 -0.244681 0
-0.233674 -0.223466 0
-0.234043 -0.265957 0
-0.212766 -0.287234 0
-0.212119 -0.244916 0
-0.190657 -0.266392 0
-0.191489 -0.308511 0
-0.169261 -0.287934 0
-0.212766 -0.287234 0
-0.190657 -0.266392 0
-0.170213 -0.329787 0
-0.147854 -0.309624 0
-0.191489 -0.308511 0
-0.169261 -0.287934 0
-0.170213 -0.329787 0
-0.148936 -0.351064 0
-0.147854 -0.309624 0
-0.126431 -0.331364 0
-0.12766 -0.37234 0
-0.105256 -0.353368 0
-0.148936 -0.351064 0
-0.126431 -0.331364 0
-0.12766 -0.37234 0
-0.106383 -0.393617 0
-0.105256 -0.353368 0
-0.083924 -0.375263 0
-0.106383 -0.393617 0
-0.085106 -0.414894 0
-0.083924 -0.375263 0
-0.062097 -0.396824 0
-0.085106 -0.414894 0
-0.06383 -0.43617 0
-0.062097 -0.396824 0
-0.040132 -0.418076 0
-0.06383 -0.43617 0
-0.042553 -0.457447 0
-0.040132 -0.418076 0
-0.019646 -0.439891 0
-0.042553 -0.457447 0
-0.021277 -0.478723 0
-0.019646 -0.439891 0
[...]
POINT_DATA 7264
VECTORS momentum double
0.00131999 -0.000982476 0
0.0056643 -0.00577222 0
0.0146606 -0.00130635 0
0.0166979 0.000350719 0
-9.02783e-05 -0.000400248 0
6.83826e-05 -0.000402264 0
-2.47009e-05 -0.000913427 0
6.2041e-05 -0.000878225 0
-0.00019868 -0.000554194 0
-2.47009e-05 -0.000913427 0
7.31672e-05 -0.00059435 0
6.2041e-05 -0.000878225 0
-3.42067e-05 -0.000969157 0
-0.00019868 -0.000554194 0
-5.34421e-07 -0.0010738 0
7.31672e-05 -0.00059435 0
3.80035e-05 -0.000633527 0
-3.42067e-05 -0.000969157 0
-1.43069e-05 -0.000720553 0
-5.34421e-07 -0.0010738 0
3.45437e-05 -0.0009144 0
3.80035e-05 -0.000633527 0
-3.73229e-05 -0.000935951 0
-1.43069e-05 -0.000720553 0
0.00012118 -0.00062901 0
3.45437e-05 -0.0009144 0
-6.79304e-06 -0.000597232 0
-3.73229e-05 -0.000935951 0
3.66336e-05 -0.0011015 0
0.00012118 -0.00062901 0
-2.26355e-05 -0.000573336 0
-6.79304e-06 -0.000597232 0
-0.000405385 -0.000629237 0
3.66336e-05 -0.0011015 0
-0.000632693 -0.000867191 0
-2.26355e-05 -0.000573336 0
-0.000289695 -0.00121352 0
-0.000632693 -0.000867191 0
6.42656e-06 -0.000435019 0
-2.26355e-05 -0.000573336 0
-0.000138034 -0.00125574 0
-0.000289695 -0.00121352 0
-0.000499507 -0.000491272 0
6.42656e-06 -0.000435019 0
6.54406e-05 -0.000760225 0
-0.000138034 -0.00125574 0
-0.00023346 -0.000450082 0
-0.000499507 -0.000491272 0
6.96883e-06 -0.000483261 0
6.54406e-05 -0.000760225 0
-0.00023216 -0.000824361 0
-0.00023346 -0.000450082 0
-4.09909e-05 -0.000415309 0
-0.00023216 -0.000824361 0
2.309e-05 -0.000291262 0
-0.00023346 -0.000450082 0
-3.41272e-05 -0.00074358 0
-4.09909e-05 -0.000415309 0
-1.90021e-05 -0.000763724 0
2.309e-05 -0.000291262 0
1.17848e-05 -0.000408021 0
-3.41272e-05 -0.00074358 0
3.49895e-06 -0.000383365 0
-1.90021e-05 -0.000763724 0
-2.2513e-05 -0.000783218 0
1.17848e-05 -0.000408021 0
-4.40322e-06 -0.000793374 0
3.49895e-06 -0.000383365 0
5.13176e-06 -0.000396918 0
-2.2513e-05 -0.000783218 0
1.38795e-06 -0.000387319 0
-4.40322e-06 -0.000793374 0
-2.0232e-05 -0.000838756 0
5.13176e-06 -0.000396918 0
-2.62762e-06 -0.000842396 0
1.38795e-06 -0.000387319 0
9.19449e-06 -0.000378545 0
-2.0232e-05 -0.000838756 0
1.96133e-06 -0.000373098 0
-2.62762e-06 -0.000842396 0
-2.91283e-05 -0.000660644 0
-1.85513e-05 -0.0017173 0
-3.06113e-05 -0.000660874 0
-1.70679e-05 -0.00171891 0
-2.42816e-05 -0.000661079 0
-1.69214e-05 -0.00171598 0
-2.91283e-05 -0.000660644 0
-1.85513e-05 -0.0017173 0
-1.99708e-05 -0.000660588 0
-1.1872e-05 -0.00171419 0
-2.42816e-05 -0.000661079 0
-1.69214e-05 -0.00171598 0
-1.50141e-05 -0.000659593 0
-6.95915e-06 -0.00171208 0
-1.99708e-05 -0.000660588 0
-1.1872e-05 -0.00171419 0
-9.51603e-06 -0.00065883 0
-1.66444e-07 -0.00171017 0
-1.50141e-05 -0.000659593 0
-6.95915e-06 -0.00171208 0
-2.8443e-06 -0.000657308 0
7.23616e-06 -0.00170809 0
-9.51603e-06 -0.00065883 0
-1.66444e-07 -0.00171017 0
5.93821e-06 -0.000656477 0
1.58409e-05 -0.00170603 0
-2.8443e-06 -0.000657308 0
7.23616e-06 -0.00170809 0
1.5286e-05 -0.000654819 0
2.57542e-05 -0.00170467 0
5.93821e-06 -0.000656477 0
1.58409e-05 -0.00170603 0
2.71037e-05 -0.000653489 0
3.51644e-05 -0.00170358 0
1.5286e-05 -0.000654819 0
2.57542e-05 -0.00170467 0
3.93607e-05 -0.000652644 0
4.60913e-05 -0.00170348 0
2.71037e-05 -0.000653489 0
3.51644e-05 -0.00170358 0
5.39558e-05 -0.000651372 0
5.66316e-05 -0.00170357 0
3.93607e-05 -0.000652644 0
4.60913e-05 -0.00170348 0
6.97581e-05 -0.000650598 0
6.33278e-05 -0.00170553 0
5.39558e-05 -0.000651372 0
5.66316e-05 -0.00170357 0
6.97581e-05 -0.000650598 0
8.20686e-05 -0.000651205 0
6.33278e-05 -0.00170553 0
7.01869e-05 -0.00170846 0
9.35266e-05 -0.000651524 0
7.37475e-05 -0.00171381 0
8.20686e-05 -0.000651205 0
7.01869e-05 -0.00170846 0
9.98638e-05 -0.000654219 0
7.55011e-05 -0.00171851 0
9.35266e-05 -0.000651524 0
7.37475e-05 -0.00171381 0
9.80495e-05 -0.000656926 0
8.06411e-05 -0.0017214 0
9.98638e-05 -0.000654219 0
7.55011e-05 -0.00171851 0
9.69492e-05 -0.00065817 0
8.33972e-05 -0.00172197 0
9.80495e-05 -0.000656926 0
8.06411e-05 -0.0017214 0
8.7141e-05 -0.000660301 0
8.19729e-05 -0.00172151 0
9.69492e-05 -0.00065817 0
8.33972e-05 -0.00172197 0
7.00511e-05 -0.000660992 0
7.6143e-05 -0.00172033 0
8.7141e-05 -0.000660301 0
8.19729e-05 -0.00172151 0
5.35577e-05 -0.000660126 0
6.51528e-05 -0.0017179 0
7.00511e-05 -0.000660992 0
7.6143e-05 -0.00172033 0
4.02915e-05 -0.000658371 0
4.85676e-05 -0.00171717 0
5.35577e-05 -0.000660126 0
6.51528e-05 -0.0017179 0
2.84228e-05 -0.000658482 0
3.14057e-05 -0.00171513 0
4.02915e-05 -0.000658371 0
4.85676e-05 -0.00171717 0
1.39543e-05 -0.000658298 0
1.7877e-05 -0.00171717 0
2.84228e-05 -0.000658482 0
3.14057e-05 -0.00171513 0
2.82971e-06 -0.000658431 0
1.7252e-06 -0.00171693 0
1.39543e-05 -0.000658298 0
1.7877e-05 -0.00171717 0
-3.42304e-06 -0.000659746 0
-1.09686e-05 -0.00171389 0
2.82971e-06 -0.000658431 0
1.7252e-06 -0.00171693 0
-1.77618e-05 -0.000663258 0
-2.3865e-05 -0.00170909 0
-3.42304e-06 -0.000659746 0
-1.09686e-05 -0.00171389 0
-3.22734e-05 -0.000667442 0
-2.77921e-05 -0.00170281 0
-1.77618e-05 -0.000663258 0
-2.3865e-05 -0.00170909 0
-4.48195e-05 -0.000666727 0
-3.10418e-05 -0.00170116 0
-3.22734e-05 -0.000667442 0
-2.77921e-05 -0.00170281 0
-4.6159e-05 -0.000664368 0
-2.93108e-05 -0.00170119 0
-4.48195e-05 -0.000666727 0
-3.10418e-05 -0.00170116 0
-5.0057e-05 -0.000660727 0
-3.1282e-05 -0.00170428 0
-4.6159e-05 -0.000664368 0
-2.93108e-05 -0.00170119 0
-4.11128e-05 -0.000656142 0
-2.28331e-05 -0.00170806 0
-5.0057e-05 -0.000660727 0
-3.1282e-05 -0.00170428 0
-3.92549e-05 -0.000651607 0
-2.6899e-05 -0.00171368 0
-4.11128e-05 -0.000656142 0
-2.28331e-05 -0.00170806 0
-1.97109e-05 -0.000650107 0
-1.55063e-05 -0.00171486 0
-3.92549e-05 -0.000651607 0
-2.6899e-05 -0.00171368 0
-2.10558e-05 -0.000649857 0
-1.93804e-05 -0.00171964 0
-1.97109e-05 -0.000650107 0
-1.55063e-05 -0.00171486 0
6.38342e-06 -0.000649525 0
1.17374e-06 -0.00171915 0
-2.10558e-05 -0.000649857 0
-1.93804e-05 -0.00171964 0
-3.5802e-06 -0.000650605 0
-2.14239e-05 -0.00172179 0
6.38342e-06 -0.000649525 0
1.17374e-06 -0.00171915 0
1.1572e-05 -0.000653177 0
-1.15679e-05 -0.00171506 0
-3.5802e-06 -0.000650605 0
-2.14239e-05 -0.00172179 0
-5.42703e-05 -0.000657012 0
-7.4592e-05 -0.00171024 0
1.1572e-05 -0.000653177 0
-1.15679e-05 -0.00171506 0
-7.13938e-05 -0.000661265 0
-9.27101e-05 -0.00168853 0
-5.42703e-05 -0.000657012 0
-7.4592e-05 -0.00171024 0
-7.13938e-05 -0.000661265 0
-0.000240422 -0.000666136 0
-9.27101e-05 -0.00168853 0
-0.000242858 -0.00167047 0
-0.000345986 -0.000663569 0
-0.000324591 -0.00162555 0
-0.000240422 -0.000666136 0
-0.000242858 -0.00167047 0
-0.000729125 -0.000658431 0
-0.000668558 -0.00157743 0
-0.000345986 -0.000663569 0
-0.000324591 -0.00162555 0
-0.00104368 -0.000646123 0
-0.000963064 -0.00143549 0
-0.000729125 -0.000658431 0
-0.000668558 -0.00157743 0
-0.00191803 -0.00063215 0
-0.00179681 -0.00127618 0
-0.00104368 -0.000646123 0
-0.000963064 -0.00143549 0
-0.00277958 -0.000608754 0
-0.00264032 -0.000914615 0
-0.00191803 -0.00063215 0
-0.00179681 -0.00127618 0
-0.00277958 -0.000608754 0
-0.00474801 -0.000578901 0
-0.00264032 -0.000914615 0
-0.00455031 -0.000486158 0
-0.00474801 -0.000578901 0
-0.00685451 -0.000542502 0
-0.00455031 -0.000486158 0
-0.00664557 0.000395282 0
-0.0110911 -0.00050139 0
-0.0107605 0.00142634 0
-0.00685451 -0.000542502 0
-0.00664557 0.000395282 0
-0.0157997 -0.000443116 0
-0.0154124 0.00337705 0
-0.0110911 -0.00050139 0
-0.0107605 0.00142634 0
-0.0244704 -0.000359996 0
-0.0237858 0.00559051 0
-0.0157997 -0.000443116 0
-0.0154124 0.00337705 0
-0.0342309 -0.000239228 0
-0.0334616 0.00944271 0
-0.0244704 -0.000359996 0
-0.0237858 0.00559051 0
-0.0512076 -9.62452e-05 0
-0.0499458 0.0136727 0
-0.0342309 -0.000239228 0
-0.0334616 0.00944271 0
-0.0707024 9.70809e-05 0
-0.0693643 0.0212641 0
-0.0512076 -9.62452e-05 0
-0.0499458 0.0136727 0
-0.103806 0.00033825 0
-0.10112 0.0289203 0
-0.0707024 9.70809e-05 0
-0.0693643 0.0212641 0
-0.141542 0.0011729 0
-0.140011 0.0434199 0
-0.103806 0.00033825 0
-0.10112 0.0289203 0
-0.202707 0.00143939 0
-0.196667 0.0460693 0
-0.141542 0.0011729 0
-0.140011 0.0434199 0
-0.230795 1.83806e-06 0
-0.256935 0.0148248 0
-0.202707 0.00143939 0
-0.196667 0.0460693 0
-0.016543 -0.00339989 0
-0.00210893 -0.0377454 0
-0.0663782 -0.00224109 0
-0.0493716 -0.0717328 0
-3.32023e-07 -0.000388652 0
-2.90575e-05 -0.000836231 0
9.19449e-06 -0.000378545 0
-2.0232e-05 -0.000838756 0
-3.32023e-07 -0.000388652 0
-1.73489e-05 -0.000396349 0
-2.90575e-05 -0.000836231 0
-3.17987e-05 -0.00083425 0
-3.0903e-05 -0.000399685 0
-4.08061e-05 -0.000832964 0
-1.73489e-05 -0.000396349 0
-3.17987e-05 -0.00083425 0
-3.0903e-05 -0.000399685 0
-3.75818e-05 -0.000403505 0
-4.08061e-05 -0.000832964 0
-5.03006e-05 -0.000830808 0
-3.75818e-05 -0.000403505 0
-4.49865e-05 -0.000405936 0
-5.03006e-05 -0.000830808 0
-5.71858e-05 -0.00083109 0
-4.49865e-05 -0.000405936 0
-5.19302e-05 -0.000408182 0
-5.71858e-05 -0.00083109 0
-6.17426e-05 -0.000832554 0
-5.19302e-05 -0.000408182 0
-5.56571e-05 -0.000408379 0
-6.17426e-05 -0.000832554 0
-6.75625e-05 -0.000835943 0
-5.56571e-05 -0.000408379 0
-5.78493e-05 -0.000410869 0
-6.75625e-05 -0.000835943 0
-7.25777e-05 -0.00083889 0
-5.78493e-05 -0.000410869 0
-6.03329e-05 -0.000412938 0
-7.25777e-05 -0.00083889 0
-7.21909e-05 -0.000841744 0
-6.03329e-05 -0.000412938 0
-6.0942e-05 -0.000414983 0
-7.21909e-05 -0.000841744 0
-6.96027e-05 -0.000844651 0
-6.0942e-05 -0.000414983 0
-5.86768e-05 -0.000416035 0
-6.96027e-05 -0.000844651 0
-6.45896e-05 -0.000846987 0
-5.86768e-05 -0.000416035 0
-5.48585e-05 -0.000417216 0
-6.45896e-05 -0.000846987 0
-5.86587e-05 -0.000848975 0
-5.48585e-05 -0.000417216 0
-4.9375e-05 -0.000417522 0
-5.86587e-05 -0.000848975 0
-5.09462e-05 -0.000850512 0
-4.9375e-05 -0.000417522 0
-4.37236e-05 -0.000417883 0
-5.09462e-05 -0.000850512 0
-4.42601e-05 -0.00085198 0
-4.37236e-05 -0.000417883 0
-3.68832e-05 -0.000417985 0
-4.42601e-05 -0.00085198 0
-3.75846e-05 -0.000853652 0
-3.68832e-05 -0.000417985 0
-2.91992e-05 -0.000418214 0
-3.75846e-05 -0.000853652 0
-3.33399e-05 -0.000855962 0
-2.91992e-05 -0.000418214 0
-2.34597e-05 -0.000418916 0
-3.33399e-05 -0.000855962 0
-2.94008e-05 -0.000857678 0
-2.34597e-05 -0.000418916 0
-2.01199e-05 -0.000419816 0
-2.94008e-05 -0.000857678 0
-2.5473e-05 -0.000859993 0
-2.01199e-05 -0.000419816 0
-1.74601e-05 -0.000420753 0
-2.5473e-05 -0.000859993 0
-2.19754e-05 -0.000862305 0
-1.74601e-05 -0.000420753 0
-1.73029e-05 -0.000421511 0
-2.19754e-05 -0.000862305 0
-2.02449e-05 -0.000864502 0
-1.73029e-05 -0.000421511 0
-1.6511e-05 -0.000421809 0
-2.02449e-05 -0.000864502 0
-1.88957e-05 -0.00086675 0
-1.6511e-05 -0.000421809 0
-1.62501e-05 -0.00042229 0
-1.88957e-05 -0.00086675 0
-1.8506e-05 -0.000868387 0
-1.62501e-05 -0.00042229 0
-1.50251e-05 -0.000422345 0
-1.8506e-05 -0.000868387 0
-1.72893e-05 -0.000869679 0
-1.50251e-05 -0.000422345 0
-1.44602e-05 -0.000422337 0
-1.72893e-05 -0.000869679 0
-1.73506e-05 -0.0008704 0
0.25319 -0.245416 0
0.157099 -0.150868 0
0.282914 -0.106663 0
0.183808 -0.0832704 0
0.157099 -0.150868 0
0.105262 -0.103781 0
0.183808 -0.0832704 0
0.124332 -0.0681992 0
0.0765164 -0.0758821 0
0.088051 -0.0554538 0
0.105262 -0.103781 0
0.124332 -0.0681992 0
0.0570761 -0.0569632 0
0.0642294 -0.044477 0
0.0765164 -0.0758821 0
0.088051 -0.0554538 0
0.0570761 -0.0569632 0
0.0436909 -0.0437825 0
0.0642294 -0.044477 0
0.0480712 -0.0358042 0
0.0436909 -0.0437825 0
0.033335 -0.0335935 0
0.0480712 -0.0358042 0
0.0359398 -0.0283725 0
0.0254743 -0.0258087 0
0.0269955 -0.0223133 0
0.033335 -0.0335935 0
0.0359398 -0.0283725 0
0.0254743 -0.0258087 0
0.0191403 -0.0195544 0
0.0269955 -0.0223133 0
0.0199199 -0.0172085 0
0.0191403 -0.0195544 0
0.0142326 -0.0146729 0
0.0199199 -0.0172085 0
0.0145603 -0.0131249 0
0.0142326 -0.0146729 0
0.0103689 -0.0108388 0
0.0145603 -0.0131249 0
0.0103626 -0.00982822 0
0.0103689 -0.0108388 0
0.00744781 -0.0079248 0
0.0103626 -0.00982822 0
0.00724817 -0.00729071 0
0.00525357 -0.00573881 0
0.00490857 -0.00534884 0
0.00744781 -0.0079248 0
0.00724817 -0.00729071 0
0.00366089 -0.0041508 0
0.00324332 -0.00392324 0
0.00525357 -0.00573881 0
0.00490857 -0.00534884 0
0.00366089 -0.0041508 0
0.00252241 -0.00301511 0
0.00324332 -0.00392324 0
0.00205342 -0.00289554 0
0.00252241 -0.00301511 0
0.00173891 -0.00223144 0
0.00205342 -0.00289554 0
0.00125071 -0.00217698 0
0.00173891 -0.00223144 0
0.00120542 -0.0016956 0
0.00125071 -0.00217698 0
0.00070316 -0.00168762 0
0.00120542 -0.0016956 0
0.000864564 -0.00135006 0
0.00070316 -0.00168762 0
0.000357907 -0.00136585 0
0.000864564 -0.00135006 0
0.000641567 -0.00112294 0
0.000357907 -0.00136585 0
0.00013371 -0.00115838 0
0.000641567 -0.00112294 0
0.000522808 -0.000997686 0
0.00013371 -0.00115838 0
1.50444e-05 -0.00103551 0
0.000522808 -0.000997686 0
0.000440863 -0.000913762 0
1.50444e-05 -0.00103551 0
-6.33662e-05 -0.000965129 0
0.000419332 -0.000878591 0
-8.13975e-05 -0.000943709 0
0.000440863 -0.000913762 0
-6.33662e-05 -0.000965129 0
0.00039597 -0.0008457 0
-0.000125677 -0.000921442 0
0.000419332 -0.000878591 0
-8.13975e-05 -0.000943709 0
0.00039597 -0.0008457 0
0.000410208 -0.000860751 0
-0.000125677 -0.000921442 0
-0.000113296 -0.00091767 0
0.000386546 -0.000850241 0
-0.000134971 -0.000889674 0
0.000410208 -0.000860751 0
-0.000113296 -0.00091767 0
0.000400868 -0.000892592 0
-6.35817e-05 -0.000898733 0
0.000386546 -0.000850241 0
-0.000134971 -0.000889674 0
0.000400868 -0.000892592 0
0.000355454 -0.000847629 0
-6.35817e-05 -0.000898733 0
-7.88144e-05 -0.000905108 0
0.000419017 -0.000895869 0
-2.71796e-05 -0.000963445 0
0.000355454 -0.000847629 0
-7.88144e-05 -0.000905108 0
0.000419017 -0.000895869 0
0.000408522 -0.000885375 0
-2.71796e-05 -0.000963445 0
-8.18271e-05 -0.000945201 0
0.000408522 -0.000885375 0
0.000489694 -0.000984745 0
-8.18271e-05 -0.000945201 0
4.91004e-05 -0.00103182 0
0.000489694 -0.000984745 0
0.000403972 -0.000901315 0
4.91004e-05 -0.00103182 0
9.75644e-06 -0.000912338 0
0.000403972 -0.000901315 0
0.000307212 -0.00077619 0
9.75644e-06 -0.000912338 0
0.000275565 -0.00112879 0
0.000307212 -0.00077619 0
0.000235545 -0.000548767 0
0.000275565 -0.00112879 0
9.06785e-05 -0.000568816 0
0.000235545 -0.000548767 0
0.000127398 -0.000453609 0
9.06785e-05 -0.000568816 0
1.89398e-05 -0.000910858 0
0.000127398 -0.000453609 0
0.000310436 -0.000284036 0
1.89398e-05 -0.000910858 0
0.000194313 -0.000752832 0
0.000310436 -0.000284036 0
0.00024122 -0.000369671 0
0.000194313 -0.000752832 0
-0.000177721 -0.000851458 0
0.00024122 -0.000369671 0
0.000158563 -0.000446521 0
-0.000177721 -0.000851458 0
9.40025e-05 -0.000796166 0
0.000158563 -0.000446521 0
-9.02783e-05 -0.000400248 0
9.40025e-05 -0.000796166 0
-2.47009e-05 -0.000913427 0
-1.72893e-05 -0.000869679 0
-1.73506e-05 -0.0008704 0
-1.93081e-05 -0.000488881 0
-1.99055e-05 -0.000492051 0
-1.93081e-05 -0.000488881 0
-1.99055e-05 -0.000492051 0
-2.3404e-05 -0.000831426 0
-2.45607e-05 -0.000833753 0
-2.3404e-05 -0.000831426 0
-2.45607e-05 -0.000833753 0
-2.86509e-05 -0.00054832 0
-2.90859e-05 -0.00055166 0
-2.86509e-05 -0.00054832 0
-2.90859e-05 -0.00055166 0
-3.3573e-05 -0.000807766 0
-3.60164e-05 -0.000811762 0
-3.3573e-05 -0.000807766 0
-3.60164e-05 -0.000811762 0
-4.04534e-05 -0.000601363 0
-4.19326e-05 -0.000605359 0
-4.04534e-05 -0.000601363 0
-4.19326e-05 -0.000605359 0
-4.62264e-05 -0.000797154 0
-4.88802e-05 -0.000801989 0
-5.43481e-05 -0.000649031 0
-4.62264e-05 -0.000797154 0
-5.60574e-05 -0.000654308 0
-4.88802e-05 -0.000801989 0
-5.43481e-05 -0.000649031 0
-5.60574e-05 -0.000654308 0
-6.25175e-05 -0.000789519 0
-6.41746e-05 -0.000795639 0
-6.25175e-05 -0.000789519 0
-6.41746e-05 -0.000795639 0
-7.30935e-05 -0.000677856 0
-7.39258e-05 -0.000685541 0
-7.30935e-05 -0.000677856 0
-7.39258e-05 -0.000685541 0
-8.60912e-05 -0.000762423 0
-8.68919e-05 -0.000771738 0
-8.60912e-05 -0.000762423 0
-8.68919e-05 -0.000771738 0
-0.000102621 -0.000670193 0
-0.000103611 -0.000682418 0
-0.000102621 -0.000670193 0
-0.000103611 -0.000682418 0
-0.000124319 -0.000703039 0
-0.000128423 -0.000718469 0
-0.000124319 -0.000703039 0
-0.000128423 -0.000718469 0
-0.000150777 -0.000629482 0
-0.00015991 -0.000648337 0
-0.000150777 -0.000629482 0
-0.00015991 -0.000648337 0
-0.000182812 -0.000625802 0
-0.000201753 -0.000648104 0
-0.000182812 -0.000625802 0
-0.000201753 -0.000648104 0
-0.000217224 -0.000583373 0
-0.00024999 -0.000607009 0
-0.000217224 -0.000583373 0
-0.00024999 -0.000607009 0
-0.00025073 -0.000560422 0
-0.000300896 -0.000582759 0
-0.00025073 -0.000560422 0
-0.000300896 -0.000582759 0
-0.000275629 -0.000565577 0
-0.000343303 -0.000581249 0
-0.000275629 -0.000565577 0
-0.000343303 -0.000581249 0
-0.0002848 -0.000538779 0
-0.000363755 -0.00054302 0
-0.0002848 -0.000538779 0
-0.000363755 -0.00054302 0
-0.000273401 -0.000617406 0
-0.000350876 -0.000606903 0
-0.000273401 -0.000617406 0
-0.000350876 -0.000606903 0
-0.000242519 -0.000603582 0
-0.000306049 -0.000582553 0
-0.000242519 -0.000603582 0
-0.000306049 -0.000582553 0
-0.000200512 -0.000778219 0
-0.000245129 -0.000751155 0
-0.000200512 -0.000778219 0
-0.000245129 -0.000751155 0
-0.00015371 -0.000756852 0
-0.000180575 -0.000730523 0
-0.00015371 -0.000756852 0
-0.000180575 -0.000730523 0
-0.000113696 -0.00100769 0
-0.000126747 -0.000983906 0
-0.000113696 -0.00100769 0
-0.000126747 -0.000983906 0
-7.57527e-05 -0.0009079 0
-8.02441e-05 -0.000891137 0
-7.57527e-05 -0.0009079 0
-8.02441e-05 -0.000891137 0
-5.6149e-05 -0.00120855 0
-5.80176e-05 -0.00119482 0
-5.6149e-05 -0.00120855 0
-5.80176e-05 -0.00119482 0
-3.30569e-05 -0.000968941 0
-3.19188e-05 -0.000959248 0
-3.30569e-05 -0.000968941 0
-3.19188e-05 -0.000959248 0
-2.43973e-05 -0.00136254 0
-2.45721e-05 -0.00135559 0
-2.43973e-05 -0.00136254 0
-2.45721e-05 -0.00135559 0
-9.24544e-06 -0.000944102 0
-7.32036e-06 -0.000941106 0
-9.24544e-06 -0.000944102 0
-7.32036e-06 -0.000941106 0
-1.42457e-05 -0.00151745 0
-1.33983e-05 -0.00151821 0
-1.42457e-05 -0.00151745 0
-1.33983e-05 -0.00151821 0
-1.34666e-05 -0.000850964 0
-1.30683e-05 -0.00085136 0
-1.34666e-05 -0.000850964 0
-1.30683e-05 -0.00085136 0
-1.85513e-05 -0.0017173 0
-1.70679e-05 -0.00171891 0
0.282914 -0.106663 0
0.183808 -0.0832704 0
0.235541 0.0240657 0
0.171547 -0.00414647 0
0.183808 -0.0832704 0
0.124332 -0.0681992 0
0.171547 -0.00414647 0
0.121159 -0.0210625 0
0.088051 -0.0554538 0
0.0888337 -0.0270854 0
0.124332 -0.0681992 0
0.121159 -0.0210625 0
0.0642294 -0.044477 0
0.0655162 -0.0265503 0
0.088051 -0.0554538 0
0.0888337 -0.0270854 0
0.0642294 -0.044477 0
0.0480712 -0.0358042 0
0.0655162 -0.0265503 0
0.0494206 -0.0240999 0
0.0480712 -0.0358042 0
0.0359398 -0.0283725 0
0.0494206 -0.0240999 0
0.0369482 -0.0204569 0
0.0269955 -0.0223133 0
0.027755 -0.0168615 0
0.0359398 -0.0283725 0
0.0369482 -0.0204569 0
0.0269955 -0.0223133 0
0.0199199 -0.0172085 0
0.027755 -0.0168615 0
0.0203965 -0.0133757 0
0.0199199 -0.0172085 0
0.0145603 -0.0131249 0
0.0203965 -0.0133757 0
0.0148859 -0.0103729 0
0.0145603 -0.0131249 0
0.0103626 -0.00982822 0
0.0148859 -0.0103729 0
0.0105726 -0.00782958 0
0.0103626 -0.00982822 0
0.00724817 -0.00729071 0
0.0105726 -0.00782958 0
0.00740402 -0.00579802 0
0.00490857 -0.00534884 0
0.00502186 -0.00422024 0
0.00724817 -0.00729071 0
0.00740402 -0.00579802 0
0.00324332 -0.00392324 0
0.00333461 -0.00304757 0
0.00490857 -0.00534884 0
0.00502186 -0.00422024 0
0.00324332 -0.00392324 0
0.00205342 -0.00289554 0
0.00333461 -0.00304757 0
0.00211996 -0.00218778 0
0.00205342 -0.00289554 0
0.00125071 -0.00217698 0
0.00211996 -0.00218778 0
0.00130397 -0.00158389 0
0.00125071 -0.00217698 0
0.00070316 -0.00168762 0
0.00130397 -0.00158389 0
0.000747339 -0.0011644 0
0.00070316 -0.00168762 0
0.000357907 -0.00136585 0
0.000747339 -0.0011644 0
0.000402088 -0.000888207 0
0.000357907 -0.00136585 0
0.00013371 -0.00115838 0
0.000402088 -0.000888207 0
0.000176078 -0.000713728 0
0.00013371 -0.00115838 0
1.50444e-05 -0.00103551 0
0.000176078 -0.000713728 0
5.02152e-05 -0.000612148 0
1.50444e-05 -0.00103551 0
-6.33662e-05 -0.000965129 0