# vtk DataFile Version 3.0
#This file was generated by the deal.II library on 2016/12/20 at 10:57:08
ASCII
DATASET UNSTRUCTURED_GRID

POINTS 7516 double
0.12 -0.5 0
0.15 -0.5 0
0.119014 -0.4708 0
0.15 -0.471429 0
0.11755 -0.441479 0
0.119014 -0.4708 0
0.15 -0.442857 0
0.15 -0.471429 0
0.117242 -0.412206 0
0.11755 -0.441479 0
0.15 -0.414286 0
0.15 -0.442857 0
0.118129 -0.383064 0
0.117242 -0.412206 0
0.15 -0.385714 0
0.15 -0.414286 0
0.12021 -0.354337 0
0.118129 -0.383064 0
0.15 -0.357143 0
0.15 -0.385714 0
0.121793 -0.32584 0
0.12021 -0.354337 0
0.15 -0.328571 0
0.15 -0.357143 0
0.122717 -0.296869 0
0.121793 -0.32584 0
0.15 -0.3 0
0.15 -0.328571 0
0.123759 -0.266752 0
0.122717 -0.296869 0
0.153091 -0.267708 0
0.15 -0.3 0
0.18456 -0.26795 0
0.153091 -0.267708 0
0.183333 -0.3 0
0.15 -0.3 0
0.216606 -0.268111 0
0.18456 -0.26795 0
0.216667 -0.3 0
0.183333 -0.3 0
0.24835 -0.26841 0
0.216606 -0.268111 0
0.25 -0.3 0
0.216667 -0.3 0
0.278782 -0.268564 0
0.24835 -0.26841 0
0.279437 -0.298917 0
0.25 -0.3 0
0.279638 -0.328111 0
0.279437 -0.298917 0
0.25 -0.328571 0
0.25 -0.3 0
0.27971 -0.356801 0
0.279638 -0.328111 0
0.25 -0.357143 0
0.25 -0.328571 0
0.279677 -0.385395 0
0.27971 -0.356801 0
0.25 -0.385714 0
0.25 -0.357143 0
0.279641 -0.413938 0
0.279677 -0.385395 0
0.25 -0.414286 0
0.25 -0.385714 0
0.279666 -0.442534 0
0.279641 -0.413938 0
0.25 -0.442857 0
0.25 -0.414286 0
0.279811 -0.471266 0
0.279666 -0.442534 0
0.25 -0.471429 0
0.25 -0.442857 0
0.28 -0.5 0
0.279811 -0.471266 0
0.25 -0.5 0
0.25 -0.471429 0
0.970149 0.5 0
0.970096 0.46978 0
1 0.5 0
1 0.469697 0
0.940299 0.5 0
0.940231 0.46984 0
0.970149 0.5 0
0.970096 0.46978 0
0.910448 0.5 0
0.910371 0.469856 0
0.940299 0.5 0
0.940231 0.46984 0
0.880597 0.5 0
0.880527 0.469909 0
0.910448 0.5 0
0.910371 0.469856 0
0.850746 0.5 0
0.850684 0.469926 0
0.880597 0.5 0
0.880527 0.469909 0
0.820896 0.5 0
0.820842 0.469978 0
0.850746 0.5 0
0.850684 0.469926 0
0.791045 0.5 0
0.791001 0.470016 0
0.820896 0.5 0
0.820842 0.469978 0
0.761194 0.5 0
0.761159 0.470055 0
0.791045 0.5 0
0.791001 0.470016 0
0.731343 0.5 0
0.731316 0.470091 0
0.761194 0.5 0
0.761159 0.470055 0
0.701493 0.5 0
0.701472 0.470118 0
0.731343 0.5 0
0.731316 0.470091 0
0.671642 0.5 0
0.671627 0.470134 0
0.701493 0.5 0
0.701472 0.470118 0
0.641791 0.5 0
0.64178 0.470142 0
0.671642 0.5 0
0.671627 0.470134 0
0.641791 0.5 0
0.61194 0.5 0
0.64178 0.470142 0
0.611934 0.470065 0
0.58209 0.5 0
0.582089 0.470002 0
0.61194 0.5 0
0.611934 0.470065 0
0.552239 0.5 0
0.552248 0.469853 0
0.58209 0.5 0
0.582089 0.470002 0
0.522388 0.5 0
0.522413 0.469718 0
0.552239 0.5 0
0.552248 0.469853 0
0.492537 0.5 0
0.492577 0.469656 0
0.522388 0.5 0
0.522413 0.469718 0
0.462687 0.5 0
0.462743 0.469571 0
0.492537 0.5 0
0.492577 0.469656 0
0.432836 0.5 0
0.432895 0.46963 0
0.462687 0.5 0
0.462743 0.469571 0
0.402985 0.5 0
0.403046 0.469669 0
0.432836 0.5 0
0.432895 0.46963 0
0.373134 0.5 0
0.373191 0.469745 0
0.402985 0.5 0
0.403046 0.469669 0
0.343284 0.5 0
0.343335 0.469723 0
0.373134 0.5 0
0.373191 0.469745 0
0.313433 0.5 0
0.313478 0.469741 0
0.343284 0.5 0
0.343335 0.469723 0
0.283582 0.5 0
0.283622 0.469783 0
0.313433 0.5 0
0.313478 0.469741 0
0.253731 0.5 0
0.253768 0.469742 0
0.283582 0.5 0
0.283622 0.469783 0
0.223881 0.5 0
0.223918 0.469737 0
0.253731 0.5 0
0.253768 0.469742 0
0.19403 0.5 0
0.194064 0.46981 0
0.223881 0.5 0
0.223918 0.469737 0
0.164179 0.5 0
0.16421 0.469881 0
0.19403 0.5 0
0.194064 0.46981 0
0.134328 0.5 0
0.134355 0.46994 0
0.164179 0.5 0
0.16421 0.469881 0
0.104478 0.5 0
0.1045 0.469997 0
0.134328 0.5 0
0.134355 0.46994 0
0.074627 0.5 0
0.074645 0.470051 0
0.104478 0.5 0
0.1045 0.469997 0
0.044776 0.5 0
0.04479 0.470093 0
0.074627 0.5 0
0.074645 0.470051 0
0.014925 0.5 0
0.014935 0.47012 0
0.044776 0.5 0
0.04479 0.470093 0
-0.014925 0.5 0
-0.014918 0.470135 0
0.014925 0.5 0
0.014935 0.47012 0
-0.044776 0.5 0
-0.044771 0.470143 0
-0.014925 0.5 0
-0.014918 0.470135 0
-0.074627 0.5 0
-0.074623 0.470146 0
-0.044776 0.5 0
-0.044771 0.470143 0
-0.104478 0.5 0
-0.104496 0.469979 0
-0.074627 0.5 0
-0.074623 0.470146 0
-0.134328 0.5 0
-0.134359 0.469935 0
-0.104478 0.5 0
-0.104496 0.469979 0
-0.164179 0.5 0
-0.164225 0.469839 0
-0.134328 0.5 0
-0.134359 0.469935 0
-0.164179 0.5 0
-0.19403 0.5 0
-0.164225 0.469839 0
-0.194083 0.469797 0
-0.223881 0.5 0
-0.22394 0.469753 0
-0.19403 0.5 0
-0.194083 0.469797 0
-0.253731 0.5 0
-0.253798 0.469819 0
-0.223881 0.5 0
-0.22394 0.469753 0
-0.283582 0.5 0
-0.283647 0.470019 0
-0.253731 0.5 0
-0.253798 0.469819 0
-0.313433 0.5 0
-0.313491 0.470151 0
-0.283582 0.5 0
-0.283647 0.470019 0
-0.343284 0.5 0
-0.343348 0.470381 0
-0.313433 0.5 0
-0.313491 0.470151 0
-0.343284 0.5 0
-0.373134 0.5 0
-0.343348 0.470381 0
-0.373195 0.470395 0
-0.373134 0.5 0
-0.402985 0.5 0
-0.373195 0.470395 0
-0.403049 0.470404 0
-0.432836 0.5 0
-0.432937 0.470297 0
-0.402985 0.5 0
-0.403049 0.470404 0
-0.462687 0.5 0
-0.462848 0.469995 0
-0.432836 0.5 0
-0.432937 0.470297 0
-0.492537 0.5 0
-0.492807 0.469765 0
-0.462687 0.5 0
-0.462848 0.469995 0
-0.522388 0.5 0
-0.52276 0.46958 0
-0.492537 0.5 0
-0.492807 0.469765 0
-0.552239 0.5 0
-0.55273 0.469652 0
-0.522388 0.5 0
-0.52276 0.46958 0
-0.58209 0.5 0
-0.582662 0.469731 0
-0.552239 0.5 0
-0.55273 0.469652 0
-0.61194 0.5 0
-0.612594 0.469999 0
-0.58209 0.5 0
-0.582662 0.469731 0
-0.641791 0.5 0
-0.642647 0.470419 0
-0.61194 0.5 0
-0.612594 0.469999 0
-0.671642 0.5 0
-0.672638 0.470543 0
-0.641791 0.5 0
-0.642647 0.470419 0
-0.701493 0.5 0
-0.702968 0.4698 0
-0.671642 0.5 0
-0.672638 0.470543 0
-0.701493 0.5 0
-0.731343 0.5 0
-0.702968 0.4698 0
-0.733232 0.468149 0
-0.731343 0.5 0
-0.761194 0.5 0
-0.733232 0.468149 0
-0.765399 0.466448 0
-0.820896 0.5 0
-0.822797 0.47207 0
-0.791045 0.5 0
-0.795702 0.469563 0
0.31 -0.5 0
0.309694 -0.471123 0
0.28 -0.5 0
0.279811 -0.471266 0
0.31 -0.5 0
0.34 -0.5 0
0.309694 -0.471123 0
0.339686 -0.471033 0
0.37 -0.5 0
0.369721 -0.471055 0
0.34 -0.5 0
0.339686 -0.471033 0
0.37 -0.5 0
0.4 -0.5 0
0.369721 -0.471055 0
0.399756 -0.470957 0
0.4 -0.5 0
0.43 -0.5 0
0.399756 -0.470957 0
0.429805 -0.470822 0
0.43 -0.5 0
0.46 -0.5 0
0.429805 -0.470822 0
0.459835 -0.470712 0
0.46 -0.5 0
0.49 -0.5 0
0.459835 -0.470712 0
0.489873 -0.470554 0
0.49 -0.5 0
0.52 -0.5 0
0.489873 -0.470554 0
0.519906 -0.470379 0
0.52 -0.5 0
0.55 -0.5 0
0.519906 -0.470379 0
0.54993 -0.470248 0
0.55 -0.5 0
0.58 -0.5 0
0.54993 -0.470248 0
0.579948 -0.470155 0
0.58 -0.5 0
0.61 -0.5 0
0.579948 -0.470155 0
0.609962 -0.470091 0
0.61 -0.5 0
0.64 -0.5 0
0.609962 -0.470091 0
0.639972 -0.47005 0
0.64 -0.5 0
0.67 -0.5 0
0.639972 -0.47005 0
0.66998 -0.470026 0
0.67 -0.5 0
0.7 -0.5 0
0.66998 -0.470026 0
0.699986 -0.470013 0
0.7 -0.5 0
0.73 -0.5 0
0.699986 -0.470013 0
0.72999 -0.470006 0
0.73 -0.5 0
0.76 -0.5 0
0.72999 -0.470006 0
0.759994 -0.470003 0
0.76 -0.5 0
0.79 -0.5 0
0.759994 -0.470003 0
0.78998 -0.469916 0
0.79 -0.5 0
0.82 -0.5 0
0.78998 -0.469916 0
0.819956 -0.469877 0
0.82 -0.5 0
0.85 -0.5 0
0.819956 -0.469877 0
0.849929 -0.469833 0
0.85 -0.5 0
0.88 -0.5 0
0.849929 -0.469833 0
0.879924 -0.469805 0
0.88 -0.5 0
0.91 -0.5 0
0.879924 -0.469805 0
0.909913 -0.469792 0
0.91 -0.5 0
0.94 -0.5 0
0.909913 -0.469792 0
0.939922 -0.469775 0
0.94 -0.5 0
0.97 -0.5 0
0.939922 -0.469775 0
0.969956 -0.46974 0
0.97 -0.5 0
1 -0.5 0
0.969956 -0.46974 0
1 -0.469697 0
-0.531915 0.031915 0
-0.510638 0.010638 0
-0.510492 0.053733 0
-0.489127 0.032461 0
-0.510638 0.010638 0
-0.489362 -0.010638 0
-0.489127 0.032461 0
-0.467791 0.011178 0
-0.489362 -0.010638 0
-0.468085 -0.031915 0
-0.467791 0.011178 0
-0.446536 -0.010172 0
-0.446809 -0.053191 0
-0.42524 -0.031466 0
-0.468085 -0.031915 0
-0.446536 -0.010172 0
-0.425532 -0.074468 0
-0.404012 -0.052824 0
-0.446809 -0.053191 0
-0.42524 -0.031466 0
-0.425532 -0.074468 0
-0.404255 -0.095745 0
-0.404012 -0.052824 0
-0.382783 -0.074175 0
-0.404255 -0.095745 0
-0.382979 -0.117021 0
-0.382783 -0.074175 0
-0.361545 -0.095511 0
-0.382979 -0.117021 0
-0.361702 -0.138298 0
-0.361545 -0.095511 0
-0.340288 -0.116831 0
-0.361702 -0.138298 0
-0.340426 -0.159574 0
-0.340288 -0.116831 0
-0.319034 -0.138159 0
-0.340426 -0.159574 0
-0.319149 -0.180851 0
-0.319034 -0.138159 0
-0.297766 -0.159484 0
-0.319149 -0.180851 0
-0.297872 -0.202128 0
-0.297766 -0.159484 0
-0.276489 -0.180797 0
-0.297872 -0.202128 0
-0.276596 -0.223404 0
-0.276489 -0.180797 0
-0.255087 -0.202105 0
-0.255319 -0.244681 0
-0.233674 -0.223466 0
-0.276596 -0.223404 0
-0.255087 -0.202105 0
-0.234043 -0.265957 0
-0.212119 -0.244916 0
-0.255319 -0.244681 0
-0.233674 -0.223466 0
-0.234043 -0.265957 0
-0.212766 -0.287234 0
-0.212119 -0.244916 0
-0.190657 -0.266392 0
-0.191489 -0.308511 0
-0.169261 -0.287934 0
-0.212766 -0.287234 0
-0.190657 -0.266392 0
-0.170213 -0.329787 0
-0.147854 -0.309624 0
-0.191489 -0.308511 0
-0.169261 -0.287934 0
-0.170213 -0.329787 0
-0.148936 -0.351064 0
-0.147854 -0.309624 0
-0.126431 -0.331364 0
-0.12766 -0.37234 0
-0.105256 -0.353368 0
-0.148936 -0.351064 0
-0.126431 -0.331364 0
-0.12766 -0.37234 0
-0.106383 -0.393617 0
-0.105256 -0.353368 0
-0.083924 -0.375263 0
-0.106383 -0.393617 0
-0.085106 -0.414894 0
-0.083924 -0.375263 0
-0.062097 -0.396824 0
-0.085106 -0.414894 0
-0.06383 -0.43617 0
-0.062097 -0.396824 0
-0.040132 -0.418076 0
-0.06383 -0.43617 0
-0.042553 -0.457447 0
-0.040132 -0.418076 0
-0.019646 -0.439891 0
-0.042553 -0.457447 0
-0.021277 -0.478723 0
-0.019646 -0.439891 0
-0.002475 -0.461393 0
-0.021277 -0.478723 0
0 -0.5 0
-0.002475 -0.461393 0
0.009599 -0.478226 0
0 -0.5 0
0.03 -0.5 0
0.009599 -0.478226 0
0.029922 -0.474701 0
0.03 -0.5 0
0.06 -0.5 0
0.029922 -0.474701 0
0.057397 -0.471689 0
0.06 -0.5 0
0.09 -0.5 0
0.057397 -0.471689 0
0.08796 -0.470463 0
0.09 -0.5 0
0.12 -0.5 0
0.08796 -0.470463 0
0.119014 -0.4708 0
0.969956 -0.46974 0
1 -0.469697 0
0.969923 -0.439465 0
1 -0.439394 0
0.969923 -0.439465 0
1 -0.439394 0
0.969894 -0.409159 0
1 -0.409091 0
0.969894 -0.409159 0
1 -0.409091 0
0.969889 -0.37886 0
1 -0.378788 0
0.969889 -0.37886 0
1 -0.378788 0
[...]
POINT_DATA 7516
VECTORS momentum double
0.00101072 -0.000407927 0
0.000112638 -0.000401073 0
0.00114778 -0.0015358 0
0.000102165 -0.00146301 0
0.00106061 -0.00175077 0
0.00114778 -0.0015358 0
0.000119686 -0.00163656 0
0.000102165 -0.00146301 0
0.00141066 -0.00262438 0
0.00106061 -0.00175077 0
7.49916e-05 -0.00265515 0
0.000119686 -0.00163656 0
0.00166174 -0.0025285 0
0.00141066 -0.00262438 0
-3.26725e-06 -0.0024037 0
7.49916e-05 -0.00265515 0
0.00203995 -0.00280551 0
0.00166174 -0.0025285 0
0.000188463 -0.00279431 0
-3.26725e-06 -0.0024037 0
0.00265797 -0.0019168 0
0.00203995 -0.00280551 0
-0.000607448 -0.00135337 0
0.000188463 -0.00279431 0
0.00434149 -0.00144892 0
0.00265797 -0.0019168 0
0.00290692 0.000230156 0
-0.000607448 -0.00135337 0
0.00603554 -0.0020801 0
0.00434149 -0.00144892 0
0.00642972 -0.0013544 0
0.00290692 0.000230156 0
0.00531022 -0.00312151 0
0.00642972 -0.0013544 0
0.00574848 -0.00129199 0
0.00290692 0.000230156 0
0.00515468 -0.00118723 0
0.00531022 -0.00312151 0
0.00516874 0.000497434 0
0.00574848 -0.00129199 0
0.00622357 -0.00303372 0
0.00515468 -0.00118723 0
0.00278648 -0.00259119 0
0.00516874 0.000497434 0
0.00381714 -0.00330625 0
0.00622357 -0.00303372 0
0.00210275 -0.00518013 0
0.00278648 -0.00259119 0
-2.90842e-05 -0.00317645 0
0.00210275 -0.00518013 0
-0.000921326 -0.0038753 0
0.00278648 -0.00259119 0
0.000469665 -0.00270969 0
-2.90842e-05 -0.00317645 0
0.000274505 -0.00207146 0
-0.000921326 -0.0038753 0
2.50293e-05 -0.00186136 0
0.000469665 -0.00270969 0
-0.000122439 -0.00226711 0
0.000274505 -0.00207146 0
0.000191415 -0.00170081 0
2.50293e-05 -0.00186136 0
6.07295e-05 -0.00148955 0
-0.000122439 -0.00226711 0
-7.13133e-07 -0.00107817 0
0.000191415 -0.00170081 0
-3.26687e-05 -0.00121609 0
6.07295e-05 -0.00148955 0
6.78917e-05 -0.00108146 0
-7.13133e-07 -0.00107817 0
1.85177e-05 -0.00101245 0
-3.26687e-05 -0.00121609 0
2.00505e-05 -0.000443271 0
6.78917e-05 -0.00108146 0
-1.10917e-05 -0.000491098 0
1.85177e-05 -0.00101245 0
-0.000210274 -0.000651787 0
-0.000201827 -0.00179484 0
-0.000195325 -0.00065199 0
-0.000184068 -0.00179589 0
-0.000224149 -0.000652316 0
-0.000218866 -0.00179626 0
-0.000210274 -0.000651787 0
-0.000201827 -0.00179484 0
-0.000232888 -0.000651942 0
-0.000227378 -0.00179843 0
-0.000224149 -0.000652316 0
-0.000218866 -0.00179626 0
-0.000240149 -0.000651063 0
-0.000235404 -0.00179973 0
-0.000232888 -0.000651942 0
-0.000227378 -0.00179843 0
-0.000242603 -0.000650348 0
-0.000237266 -0.00180122 0
-0.000240149 -0.000651063 0
-0.000235404 -0.00179973 0
-0.000242967 -0.000648909 0
-0.000237492 -0.00180222 0
-0.000242603 -0.000650348 0
-0.000237266 -0.00180122 0
-0.000237702 -0.000648135 0
-0.000232947 -0.00180345 0
-0.000242967 -0.000648909 0
-0.000237492 -0.00180222 0
-0.000230018 -0.000646538 0
-0.000225391 -0.00180542 0
-0.000237702 -0.000648135 0
-0.000232947 -0.00180345 0
-0.000216109 -0.000645262 0
-0.00021472 -0.00180754 0
-0.000230018 -0.000646538 0
-0.000225391 -0.00180542 0
-0.000199208 -0.000644416 0
-0.000199997 -0.00181013 0
-0.000216109 -0.000645262 0
-0.00021472 -0.00180754 0
-0.000176494 -0.000643092 0
-0.000181829 -0.00181228 0
-0.000199208 -0.000644416 0
-0.000199997 -0.00181013 0
-0.00014984 -0.000642269 0
-0.000164279 -0.00181515 0
-0.000176494 -0.000643092 0
-0.000181829 -0.00181228 0
-0.00014984 -0.000642269 0
-0.000123148 -0.000642709 0
-0.000164279 -0.00181515 0
-0.000142501 -0.00181826 0
-9.34781e-05 -0.000642896 0
-0.00011969 -0.00182221 0
-0.000123148 -0.000642709 0
-0.000142501 -0.00181826 0
-6.34175e-05 -0.000645376 0
-9.30296e-05 -0.00182414 0
-9.34781e-05 -0.000642896 0
-0.00011969 -0.00182221 0
-3.42411e-05 -0.000647724 0
-5.56067e-05 -0.00182172 0
-6.34175e-05 -0.000645376 0
-9.30296e-05 -0.00182414 0
5.12232e-06 -0.000648571 0
-1.06343e-05 -0.00181345 0
-3.42411e-05 -0.000647724 0
-5.56067e-05 -0.00182172 0
4.92993e-05 -0.000650052 0
4.44458e-05 -0.00180115 0
5.12232e-06 -0.000648571 0
-1.06343e-05 -0.00181345 0
0.00010506 -0.000650069 0
0.000115047 -0.00178537 0
4.92993e-05 -0.000650052 0
4.44458e-05 -0.00180115 0
0.000190006 -0.000648495 0
0.000210403 -0.0017667 0
0.00010506 -0.000650069 0
0.000115047 -0.00178537 0
0.000316244 -0.000646003 0
0.000339419 -0.00174743 0
0.000190006 -0.000648495 0
0.000210403 -0.0017667 0
0.000495367 -0.000645205 0
0.000520572 -0.00172281 0
0.000316244 -0.000646003 0
0.000339419 -0.00174743 0
0.000731676 -0.000644024 0
0.000766391 -0.00169595 0
0.000495367 -0.000645205 0
0.000520572 -0.00172281 0
0.00104424 -0.000643106 0
0.00108385 -0.00165803 0
0.000731676 -0.000644024 0
0.000766391 -0.00169595 0
0.00143745 -0.000643001 0
0.00148286 -0.00160782 0
0.00104424 -0.000643106 0
0.00108385 -0.00165803 0
0.0019086 -0.000644882 0
0.00197021 -0.00154493 0
0.00143745 -0.000643001 0
0.00148286 -0.00160782 0
0.00246015 -0.000647036 0
0.00254911 -0.00147192 0
0.0019086 -0.000644882 0
0.00197021 -0.00154493 0
0.00309783 -0.000644082 0
0.00321459 -0.00139225 0
0.00246015 -0.000647036 0
0.00254911 -0.00147192 0
0.00380491 -0.000639158 0
0.00394458 -0.0013034 0
0.00309783 -0.000644082 0
0.00321459 -0.00139225 0
0.00455277 -0.000632678 0
0.00471459 -0.00120277 0
0.00380491 -0.000639158 0
0.00394458 -0.0013034 0
0.00529864 -0.000625081 0
0.00547973 -0.00109033 0
0.00455277 -0.000632678 0
0.00471459 -0.00120277 0
0.00598339 -0.000617586 0
0.00617675 -0.000961616 0
0.00529864 -0.000625081 0
0.00547973 -0.00109033 0
0.00653653 -0.000612883 0
0.00673883 -0.000812709 0
0.00598339 -0.000617586 0
0.00617675 -0.000961616 0
0.00685534 -0.000608723 0
0.00706919 -0.000639837 0
0.00653653 -0.000612883 0
0.00673883 -0.000812709 0
0.00685804 -0.000603519 0
0.00707581 -0.00043283 0
0.00685534 -0.000608723 0
0.00706919 -0.000639837 0
0.00639484 -0.000598429 0
0.00660512 -0.000180616 0
0.00685804 -0.000603519 0
0.00707581 -0.00043283 0
0.00537484 -0.000592881 0
0.00558408 0.000137412 0
0.00639484 -0.000598429 0
0.00660512 -0.000180616 0
0.00361461 -0.00058747 0
0.00381889 0.000522561 0
0.00537484 -0.000592881 0
0.00558408 0.000137412 0
0.00109101 -0.000580431 0
0.00128318 0.000994583 0
0.00361461 -0.00058747 0
0.00381889 0.000522561 0
0.00109101 -0.000580431 0
-0.00244798 -0.000571677 0
0.00128318 0.000994583 0
-0.00226274 0.00156157 0
-0.00692652 -0.000553266 0
-0.00675173 0.00223765 0
-0.00244798 -0.000571677 0
-0.00226274 0.00156157 0
-0.0127027 -0.000531923 0
-0.0125523 0.00305319 0
-0.00692652 -0.000553266 0
-0.00675173 0.00223765 0
-0.0195999 -0.000497671 0
-0.0195049 0.00402634 0
-0.0127027 -0.000531923 0
-0.0125523 0.00305319 0
-0.0281948 -0.000461193 0
-0.0281773 0.00517079 0
-0.0195999 -0.000497671 0
-0.0195049 0.00402634 0
-0.0381141 -0.000412339 0
-0.0382471 0.00650425 0
-0.0281948 -0.000461193 0
-0.0281773 0.00517079 0
-0.0381141 -0.000412339 0
-0.0502463 -0.000364387 0
-0.0382471 0.00650425 0
-0.0505777 0.00808142 0
-0.0502463 -0.000364387 0
-0.063986 -0.000313921 0
-0.0505777 0.00808142 0
-0.0645811 0.00989725 0
-0.0805361 -0.000258199 0
-0.0814385 0.0118689 0
-0.063986 -0.000313921 0
-0.0645811 0.00989725 0
-0.0989114 -0.000204626 0
-0.100212 0.0141084 0
-0.0805361 -0.000258199 0
-0.0814385 0.0118689 0
-0.120467 -0.000162347 0
-0.122289 0.0161561 0
-0.0989114 -0.000204626 0
-0.100212 0.0141084 0
-0.143455 -0.000159783 0
-0.14597 0.0178995 0
-0.120467 -0.000162347 0
-0.122289 0.0161561 0
-0.169148 -0.000189136 0
-0.172142 0.0188828 0
-0.143455 -0.000159783 0
-0.14597 0.0178995 0
-0.195139 -0.000155188 0
-0.198693 0.0197383 0
-0.169148 -0.000189136 0
-0.172142 0.0188828 0
-0.223364 -0.000216839 0
-0.227117 0.0205233 0
-0.195139 -0.000155188 0
-0.198693 0.0197383 0
-0.251342 -0.000352823 0
-0.255563 0.0224508 0
-0.223364 -0.000216839 0
-0.227117 0.0205233 0
-0.282656 -0.000117928 0
-0.284775 0.0241139 0
-0.251342 -0.000352823 0
-0.255563 0.0224508 0
-0.311644 0.000424223 0
-0.316023 0.0286521 0
-0.282656 -0.000117928 0
-0.284775 0.0241139 0
-0.311644 0.000424223 0
-0.345961 0.000738837 0
-0.316023 0.0286521 0
-0.343724 0.0276339 0
-0.345961 0.000738837 0
-0.36026 0.000748805 0
-0.343724 0.0276339 0
-0.371783 0.0165402 0
-0.339262 0.000458824 0
-0.332648 -0.0217408 0
-0.359187 -0.00158942 0
-0.368825 -0.0119405 0
5.45649e-05 -0.000434001 0
7.58933e-05 -0.00107884 0
2.00505e-05 -0.000443271 0
6.78917e-05 -0.00108146 0
5.45649e-05 -0.000434001 0
5.55475e-05 -0.000415268 0
7.58933e-05 -0.00107884 0
7.72266e-05 -0.00108317 0
4.60157e-05 -0.00041877 0
5.41501e-05 -0.00105186 0
5.55475e-05 -0.000415268 0
7.72266e-05 -0.00108317 0
4.60157e-05 -0.00041877 0
1.81194e-05 -0.000413055 0
5.41501e-05 -0.00105186 0
2.3772e-05 -0.00103887 0
1.81194e-05 -0.000413055 0
-1.4958e-05 -0.000418057 0
2.3772e-05 -0.00103887 0
-1.74887e-05 -0.00101689 0
-1.4958e-05 -0.000418057 0
-6.00563e-05 -0.000416158 0
-1.74887e-05 -0.00101689 0
-5.87007e-05 -0.00101021 0
-6.00563e-05 -0.000416158 0
-0.000100069 -0.000418042 0
-5.87007e-05 -0.00101021 0
-0.000105749 -0.0010011 0
-0.000100069 -0.000418042 0
-0.000143419 -0.000418637 0
-0.000105749 -0.0010011 0
-0.000151367 -0.000999731 0
-0.000143419 -0.000418637 0
-0.000183344 -0.000421659 0
-0.000151367 -0.000999731 0
-0.000191161 -0.000995981 0
-0.000183344 -0.000421659 0
-0.000222409 -0.000422792 0
-0.000191161 -0.000995981 0
-0.000226652 -0.000996868 0
-0.000222409 -0.000422792 0
-0.000253789 -0.000424328 0
-0.000226652 -0.000996868 0
-0.000256483 -0.000996244 0
-0.000253789 -0.000424328 0
-0.000281944 -0.000425089 0
-0.000256483 -0.000996244 0
-0.000282104 -0.000997834 0
-0.000281944 -0.000425089 0
-0.000302756 -0.000425655 0
-0.000282104 -0.000997834 0
-0.000300955 -0.000998563 0
-0.000302756 -0.000425655 0
-0.000320055 -0.000425836 0
-0.000300955 -0.000998563 0
-0.000316753 -0.00100059 0
-0.000320055 -0.000425836 0
-0.000330124 -0.000426095 0
-0.000316753 -0.00100059 0
-0.000327021 -0.00100251 0
-0.000330124 -0.000426095 0
-0.000335625 -0.000426232 0
-0.000327021 -0.00100251 0
-0.000335848 -0.00100564 0
-0.000335625 -0.000426232 0
-0.000337735 -0.000427049 0
-0.000335848 -0.00100564 0
-0.000339925 -0.00100826 0
-0.000337735 -0.000427049 0
-0.000339337 -0.000427937 0
-0.000339925 -0.00100826 0
-0.000340882 -0.00101173 0
-0.000339337 -0.000427937 0
-0.000337042 -0.00042896 0
-0.000340882 -0.00101173 0
-0.000337779 -0.00101535 0
-0.000337042 -0.00042896 0
-0.000334967 -0.000429753 0
-0.000337779 -0.00101535 0
-0.000334127 -0.00101916 0
-0.000334967 -0.000429753 0
-0.000328183 -0.000430117 0
-0.000334127 -0.00101916 0
-0.000326967 -0.001023 0
-0.000328183 -0.000430117 0
-0.000320624 -0.000430636 0
-0.000326967 -0.001023 0
-0.000319539 -0.00102626 0
-0.000320624 -0.000430636 0
-0.000308968 -0.000430722 0
-0.000319539 -0.00102626 0
-0.000308277 -0.00102861 0
-0.000308968 -0.000430722 0
-0.000298956 -0.000430683 0
-0.000308277 -0.00102861 0
-0.000299137 -0.00102966 0
0.25583 -0.249728 0
0.160043 -0.153984 0
0.275947 -0.103125 0
0.182251 -0.0967059 0
0.160043 -0.153984 0
0.113905 -0.113259 0
0.182251 -0.0967059 0
0.130184 -0.0817565 0
0.113905 -0.113259 0
0.0883363 -0.0877839 0
0.130184 -0.0817565 0
0.098942 -0.0689988 0
0.0711351 -0.0711691 0
0.0783336 -0.0580769 0
0.0883363 -0.0877839 0
0.098942 -0.0689988 0
0.0593388 -0.0594003 0
0.0642322 -0.050316 0
0.0711351 -0.0711691 0
0.0783336 -0.0580769 0
0.0593388 -0.0594003 0
0.0505782 -0.05082 0
0.0642322 -0.050316 0
0.0540512 -0.0439043 0
0.0505782 -0.05082 0
0.0440949 -0.0443602 0
0.0540512 -0.0439043 0
0.0465399 -0.0391228 0
0.0440949 -0.0443602 0
0.0390226 -0.0393562 0
0.0465399 -0.0391228 0
0.0407998 -0.0351443 0
0.0390226 -0.0393562 0
0.0350473 -0.0353947 0
0.0407998 -0.0351443 0
0.0363017 -0.0319994 0
0.0350473 -0.0353947 0
0.0317677 -0.0321428 0
0.0363017 -0.0319994 0
0.0326624 -0.0292877 0
0.0317677 -0.0321428 0
0.0290198 -0.0294026 0
0.0326624 -0.0292877 0
0.0296265 -0.0269909 0
0.0290198 -0.0294026 0
0.0265965 -0.0269927 0
0.0296265 -0.0269909 0
0.026983 -0.0249068 0
0.0244278 -0.024822 0
0.0246337 -0.0230145 0
0.0265965 -0.0269927 0
0.026983 -0.0249068 0
0.0223828 -0.0227771 0
0.022412 -0.021192 0
0.0244278 -0.024822 0
0.0246337 -0.0230145 0
0.0223828 -0.0227771 0
0.0204654 -0.0208684 0
0.022412 -0.021192 0
0.0203502 -0.0194483 0
0.0185645 -0.0189868 0
0.0183308 -0.017712 0
0.0204654 -0.0208684 0
0.0203502 -0.0194483 0
0.0167491 -0.0172023 0
0.016456 -0.0160359 0
0.0185645 -0.0189868 0
0.0183308 -0.017712 0
0.0167491 -0.0172023 0
0.0149059 -0.0153686 0
0.016456 -0.0160359 0
0.0145391 -0.0143575 0
0.0132132 -0.0136718 0
0.0127341 -0.0127837 0
0.0149059 -0.0153686 0
0.0145391 -0.0143575 0
0.0132132 -0.0136718 0
0.0114877 -0.0119575 0
0.0127341 -0.0127837 0
0.0109134 -0.0111118 0
0.0114877 -0.0119575 0
0.00986894 -0.0103456 0
0.0109134 -0.0111118 0
0.00929779 -0.00957317 0
0.00986894 -0.0103456 0
0.00812128 -0.00860119 0
0.00929779 -0.00957317 0
0.00762908 -0.00773989 0
0.00812128 -0.00860119 0
0.00626429 -0.00664603 0
0.00762908 -0.00773989 0
0.00627549 -0.00627604 0
0.00626429 -0.00664603 0
0.00425867 -0.00462819 0
0.00627549 -0.00627604 0
0.00468284 -0.00400896 0
0.00425867 -0.00462819 0
0.00190948 -0.00123848 0
0.00468284 -0.00400896 0
0.00377803 -0.00298038 0
0.00190948 -0.00123848 0
0.00372287 -0.00025882 0
0.00377803 -0.00298038 0
0.00384696 -0.00227083 0
0.00372287 -0.00025882 0
0.00317246 -0.000428545 0
0.00384696 -0.00227083 0
0.00295451 -0.00184943 0
0.00317246 -0.000428545 0
0.00240201 -0.000483304 0
0.00295451 -0.00184943 0
0.00239869 -0.00159087 0
0.00240201 -0.000483304 0
0.00101072 -0.000407927 0
0.00239869 -0.00159087 0
0.00114778 -0.0015358 0
-0.000308277 -0.00102861 0
-0.000299137 -0.00102966 0
-0.000308476 -0.000798815 0
-0.000300374 -0.000802593 0
-0.000308476 -0.000798815 0
-0.000300374 -0.000802593 0
-0.000312847 -0.00128495 0
-0.000305707 -0.00128819 0
-0.000312847 -0.00128495 0
-0.000305707 -0.00128819 0
-0.000320885 -0.001143 0
-0.000313524 -0.0011477 0
-0.000320885 -0.001143 0
-0.000313524 -0.0011477 0
-0.000330787 -0.0015306 0
-0.000325749 -0.00153644 0
-0.000330787 -0.0015306 0
-0.000325749 -0.00153644 0
-0.000344313 -0.00144414 0
-0.000338866 -0.00145048 0
-0.000344313 -0.00144414 0
-0.000338866 -0.00145048 0
-0.000358224 -0.00174463 0
-0.000354426 -0.00175222 0
-0.000376022 -0.00169236 0
-0.000358224 -0.00174463 0
-0.000372154 -0.00170074 0
-0.000354426 -0.00175222 0
-0.000376022 -0.00169236 0
-0.000372154 -0.00170074 0
-0.000395642 -0.0019176 0
-0.000392645 -0.00192693 0
-0.000395642 -0.0019176 0
-0.000392645 -0.00192693 0
-0.000419333 -0.0018868 0
-0.000416794 -0.00189764 0
-0.000419333 -0.0018868 0
-0.000416794 -0.00189764 0
-0.000447257 -0.00204811 0
-0.0004461 -0.0020601 0
-0.000447257 -0.00204811 0
-0.0004461 -0.0020601 0
-0.000480254 -0.00203166 0
-0.000481083 -0.00204585 0
-0.000480254 -0.00203166 0
-0.000481083 -0.00204585 0
-0.000520268 -0.00213635 0
-0.000526364 -0.00215266 0
-0.000520268 -0.00213635 0
-0.000526364 -0.00215266 0
-0.000566392 -0.00212661 0
-0.000580181 -0.00214517 0
-0.000566392 -0.00212661 0
-0.000580181 -0.00214517 0
-0.000619368 -0.00217288 0
-0.000646166 -0.00219367 0
-0.000619368 -0.00217288 0
-0.000646166 -0.00219367 0
-0.000674134 -0.00215752 0
-0.00071844 -0.00217871 0
-0.000674134 -0.00215752 0
-0.00071844 -0.00217871 0
-0.000725325 -0.00213464 0
-0.000790963 -0.00215402 0
-0.000725325 -0.00213464 0
-0.000790963 -0.00215402 0
-0.000760859 -0.00210403 0
-0.000847442 -0.00211693 0
-0.000760859 -0.00210403 0
-0.000847442 -0.00211693 0
-0.00077021 -0.00200932 0
-0.000870143 -0.00201176 0
-0.00077021 -0.00200932 0
-0.000870143 -0.00201176 0
-0.000745509 -0.00198414 0
-0.000843796 -0.00197345 0
-0.000745509 -0.00198414 0
-0.000843796 -0.00197345 0
-0.000689253 -0.0018462 0
-0.000771268 -0.00182677 0
-0.000689253 -0.0018462 0
-0.000771268 -0.00182677 0
-0.000613114 -0.00187714 0
-0.000672203 -0.0018529 0
-0.000613114 -0.00187714 0
-0.000672203 -0.0018529 0
-0.000529162 -0.00171719 0
-0.000565411 -0.00169416 0
-0.000529162 -0.00171719 0
-0.000565411 -0.00169416 0
-0.000452767 -0.00183176 0
-0.000469787 -0.00181097 0
-0.000452767 -0.00183176 0
-0.000469787 -0.00181097 0
-0.00038212 -0.0016237 0
-0.000385475 -0.00160926 0
-0.00038212 -0.0016237 0
-0.000385475 -0.00160926 0
-0.000333372 -0.00182496 0
-0.000329821 -0.0018125 0
-0.000333372 -0.00182496 0
-0.000329821 -0.0018125 0
-0.000284264 -0.00151529 0
-0.00027424 -0.00150591 0
-0.000284264 -0.00151529 0
-0.00027424 -0.00150591 0
-0.000251521 -0.00182746 0
-0.000240204 -0.00182013 0
-0.000251521 -0.00182746 0
-0.000240204 -0.00182013 0
-0.000216521 -0.00134399 0
-0.000201066 -0.00134013 0
-0.000216521 -0.00134399 0
-0.000201066 -0.00134013 0
-0.000207257 -0.00181595 0
-0.00019153 -0.0018157 0
-0.000207257 -0.00181595 0
-0.00019153 -0.0018157 0
-0.000199619 -0.00106517 0
-0.0001833 -0.00106448 0
-0.000199619 -0.00106517 0
-0.0001833 -0.00106448 0
-0.000201827 -0.00179484 0
-0.000184068 -0.00179589 0
0.275947 -0.103125 0
0.182251 -0.0967059 0
0.224906 -0.00312556 0
0.17116 -0.0333608 0
0.182251 -0.0967059 0
0.130184 -0.0817565 0
0.17116 -0.0333608 0
0.129297 -0.042152 0
0.130184 -0.0817565 0
0.098942 -0.0689988 0
0.129297 -0.042152 0
0.100256 -0.042728 0
0.0783336 -0.0580769 0
0.0806052 -0.0404 0
0.098942 -0.0689988 0
0.100256 -0.042728 0
0.0642322 -0.050316 0
0.0661504 -0.0373225 0
0.0783336 -0.0580769 0
0.0806052 -0.0404 0
0.0642322 -0.050316 0
0.0540512 -0.0439043 0
0.0661504 -0.0373225 0
0.0558859 -0.0343397 0
0.0540512 -0.0439043 0
0.0465399 -0.0391228 0
0.0558859 -0.0343397 0
0.0479396 -0.0315392 0
0.0465399 -0.0391228 0
0.0407998 -0.0351443 0
0.0479396 -0.0315392 0
0.0420066 -0.0291469 0
0.0407998 -0.0351443 0
0.0363017 -0.0319994 0
0.0420066 -0.0291469 0
0.0372268 -0.0269666 0
0.0363017 -0.0319994 0
0.0326624 -0.0292877 0
0.0372268 -0.0269666 0
0.0334306 -0.0250645 0
0.0326624 -0.0292877 0
0.0296265 -0.0269909 0
0.0334306 -0.0250645 0
0.0301872 -0.0233156 0
0.0296265 -0.0269909 0
0.026983 -0.0249068 0
0.0301872 -0.0233156 0
0.0274157 -0.0217057 0
0.0246337 -0.0230145 0
0.0249272 -0.0201307 0
0.026983 -0.0249068 0
0.0274157 -0.0217057 0
0.022412 -0.021192 0
0.0226461 -0.0185992 0
0.0246337 -0.0230145 0
0.0249272 -0.0201307 0
0.022412 -0.021192 0
0.0203502 -0.0194483 0
0.0226461 -0.0185992 0
0.0204957 -0.0170788 0
0.0183308 -0.017712 0
0.0183608 -0.0156163 0
0.0203502 -0.0194483 0
0.0204957 -0.0170788 0
0.016456 -0.0160359 0
0.0163631 -0.0141401 0
0.0183308 -0.017712 0
0.0183608 -0.0156163 0
0.016456 -0.0160359 0
0.0145391 -0.0143575 0
0.0163631 -0.0141401 0
0.0143091 -0.012581 0
0.0127341 -0.0127837 0
0.0124232 -0.0110561 0
0.0145391 -0.0143575 0
0.0143091 -0.012581 0
0.0127341 -0.0127837 0
0.0109134 -0.0111118 0
0.0124232 -0.0110561 0
0.0104671 -0.00964793 0
0.0109134 -0.0111118 0
0.00929779 -0.00957317 0
0.0104671 -0.00964793 0
0.00894161 -0.00812469 0
0.00929779 -0.00957317 0
0.00762908 -0.00773989 0
0.00894161 -0.00812469 0
0.00708794 -0.00659826 0
0.00762908 -0.00773989 0
0.00627549 -0.00627604 0
0.00708794 -0.00659826 0
0.00597554 -0.00500712 0
0.00466987 -0.00276314 0
0.00384696 -0.00227083 0
0.00355619 -0.00272449 0
0.00295451 -0.00184943 0
0.00355619 -0.00272449 0
0.00295451 -0.00184943 0
0.00259687 -0.00231541 0
0.00239869 -0.00159087 0
0.00259687 -0.00231541 0
0.00239869 -0.00159087 0
0.00106061 -0.00175077 0
0.00114778 -0.0015358 0
0.0030163 -0.00329798 0
0.00259687 -0.00231541 0
0.00141066 -0.00262438 0
0.00106061 -0.00175077 0
0.00336689 -0.00309661 0
0.0030163 -0.00329798 0
0.00166174 -0.0025285 0
0.00141066 -0.00262438 0
0.003872 -0.00332122 0
0.00336689 -0.00309661 0
0.00203995 -0.00280551 0
0.00166174 -0.0025285 0
0.00466549 -0.00304062 0
0.003872 -0.00332122 0
0.00265797 -0.0019168 0
0.00203995 -0.00280551 0
0.00583006 -0.00322731 0
0.00466549 -0.00304062 0
0.00434149 -0.00144892 0
0.00265797 -0.0019168 0
0.007027 -0.00341939 0
0.00583006 -0.00322731 0
0.00603554 -0.0020801 0
0.00434149 -0.00144892 0
0.007027 -0.00341939 0
0.00603554 -0.0020801 0
0.00813427 -0.00397406 0
0.00718551 -0.00330349 0
0.00603554 -0.0020801 0
0.00642972 -0.0013544 0
0.00718551 -0.00330349 0
0.00675829 -0.0026552 0
0.00531022 -0.00312151 0