# vtk DataFile Version 3.0
#This file was generated by the deal.II library on 2016/12/20 at 10:56:54
ASCII
DATASET UNSTRUCTURED_GRID

POINTS 7360 double
-1 0.5 0
-0.978723 0.478723 0
-0.970149 0.5 0
-0.964976 0.485465 0
0.12 -0.5 0
0.15 -0.5 0
0.119014 -0.4708 0
0.15 -0.471429 0
0.11755 -0.441479 0
0.119014 -0.4708 0
0.15 -0.442857 0
0.15 -0.471429 0
0.117242 -0.412206 0
0.11755 -0.441479 0
0.15 -0.414286 0
0.15 -0.442857 0
0.118129 -0.383064 0
0.117242 -0.412206 0
0.15 -0.385714 0
0.15 -0.414286 0
0.12021 -0.354337 0
0.118129 -0.383064 0
0.15 -0.357143 0
0.15 -0.385714 0
0.121793 -0.32584 0
0.12021 -0.354337 0
0.15 -0.328571 0
0.15 -0.357143 0
0.122717 -0.296869 0
0.121793 -0.32584 0
0.15 -0.3 0
0.15 -0.328571 0
0.123759 -0.266752 0
0.122717 -0.296869 0
0.153091 -0.267708 0
0.15 -0.3 0
0.18456 -0.26795 0
0.153091 -0.267708 0
0.183333 -0.3 0
0.15 -0.3 0
0.216606 -0.268111 0
0.18456 -0.26795 0
0.216667 -0.3 0
0.183333 -0.3 0
0.24835 -0.26841 0
0.216606 -0.268111 0
0.25 -0.3 0
0.216667 -0.3 0
0.278782 -0.268564 0
0.24835 -0.26841 0
0.279437 -0.298917 0
0.25 -0.3 0
0.279638 -0.328111 0
0.279437 -0.298917 0
0.25 -0.328571 0
0.25 -0.3 0
0.27971 -0.356801 0
0.279638 -0.328111 0
0.25 -0.357143 0
0.25 -0.328571 0
0.279677 -0.385395 0
0.27971 -0.356801 0
0.25 -0.385714 0
0.25 -0.357143 0
0.279641 -0.413938 0
0.279677 -0.385395 0
0.25 -0.414286 0
0.25 -0.385714 0
0.279666 -0.442534 0
0.279641 -0.413938 0
0.25 -0.442857 0
0.25 -0.414286 0
0.279811 -0.471266 0
0.279666 -0.442534 0
0.25 -0.471429 0
0.25 -0.442857 0
0.28 -0.5 0
0.279811 -0.471266 0
0.25 -0.5 0
0.25 -0.471429 0
0.970149 0.5 0
0.970096 0.46978 0
1 0.5 0
1 0.469697 0
0.940299 0.5 0
0.940231 0.46984 0
0.970149 0.5 0
0.970096 0.46978 0
0.910448 0.5 0
0.910371 0.469856 0
0.940299 0.5 0
0.940231 0.46984 0
0.880597 0.5 0
0.880527 0.469909 0
0.910448 0.5 0
0.910371 0.469856 0
0.850746 0.5 0
0.850684 0.469926 0
0.880597 0.5 0
0.880527 0.469909 0
0.820896 0.5 0
0.820842 0.469978 0
0.850746 0.5 0
0.850684 0.469926 0
0.791045 0.5 0
0.791001 0.470016 0
0.820896 0.5 0
0.820842 0.469978 0
0.761194 0.5 0
0.761159 0.470055 0
0.791045 0.5 0
0.791001 0.470016 0
0.731343 0.5 0
0.731316 0.470091 0
0.761194 0.5 0
0.761159 0.470055 0
0.701493 0.5 0
0.701472 0.470118 0
0.731343 0.5 0
0.731316 0.470091 0
0.671642 0.5 0
0.671627 0.470134 0
0.701493 0.5 0
0.701472 0.470118 0
0.641791 0.5 0
0.64178 0.470142 0
0.671642 0.5 0
0.671627 0.470134 0
0.641791 0.5 0
0.61194 0.5 0
0.64178 0.470142 0
0.611934 0.470065 0
0.58209 0.5 0
0.582089 0.470002 0
0.61194 0.5 0
0.611934 0.470065 0
0.552239 0.5 0
0.552248 0.469853 0
0.58209 0.5 0
0.582089 0.470002 0
0.522388 0.5 0
0.522413 0.469718 0
0.552239 0.5 0
0.552248 0.469853 0
0.492537 0.5 0
0.492577 0.469656 0
0.522388 0.5 0
0.522413 0.469718 0
0.462687 0.5 0
0.462743 0.469571 0
0.492537 0.5 0
0.492577 0.469656 0
0.432836 0.5 0
0.432895 0.46963 0
0.462687 0.5 0
0.462743 0.469571 0
0.402985 0.5 0
0.403046 0.469669 0
0.432836 0.5 0
0.432895 0.46963 0
0.373134 0.5 0
0.373191 0.469745 0
0.402985 0.5 0
0.403046 0.469669 0
0.343284 0.5 0
0.343335 0.469723 0
0.373134 0.5 0
0.373191 0.469745 0
0.313433 0.5 0
0.313478 0.469741 0
0.343284 0.5 0
0.343335 0.469723 0
0.283582 0.5 0
0.283622 0.469783 0
0.313433 0.5 0
0.313478 0.469741 0
0.253731 0.5 0
0.253768 0.469742 0
0.283582 0.5 0
0.283622 0.469783 0
0.223881 0.5 0
0.223918 0.469737 0
0.253731 0.5 0
0.253768 0.469742 0
0.19403 0.5 0
0.194064 0.46981 0
0.223881 0.5 0
0.223918 0.469737 0
0.164179 0.5 0
0.16421 0.469881 0
0.19403 0.5 0
0.194064 0.46981 0
0.134328 0.5 0
0.134355 0.46994 0
0.164179 0.5 0
0.16421 0.469881 0
0.104478 0.5 0
0.1045 0.469997 0
0.134328 0.5 0
0.134355 0.46994 0
0.074627 0.5 0
0.074645 0.470051 0
0.104478 0.5 0
0.1045 0.469997 0
0.044776 0.5 0
0.04479 0.470093 0
0.074627 0.5 0
0.074645 0.470051 0
0.014925 0.5 0
0.014935 0.47012 0
0.044776 0.5 0
0.04479 0.470093 0
-0.014925 0.5 0
-0.014918 0.470135 0
0.014925 0.5 0
0.014935 0.47012 0
-0.044776 0.5 0
-0.044771 0.470143 0
-0.014925 0.5 0
-0.014918 0.470135 0
-0.074627 0.5 0
-0.074623 0.470146 0
-0.044776 0.5 0
-0.044771 0.470143 0
-0.104478 0.5 0
-0.104496 0.469979 0
-0.074627 0.5 0
-0.074623 0.470146 0
-0.134328 0.5 0
-0.134359 0.469935 0
-0.104478 0.5 0
-0.104496 0.469979 0
-0.164179 0.5 0
-0.164225 0.469839 0
-0.134328 0.5 0
-0.134359 0.469935 0
-0.164179 0.5 0
-0.19403 0.5 0
-0.164225 0.469839 0
-0.194083 0.469797 0
-0.223881 0.5 0
-0.22394 0.469753 0
-0.19403 0.5 0
-0.194083 0.469797 0
-0.253731 0.5 0
-0.253798 0.469819 0
-0.223881 0.5 0
-0.22394 0.469753 0
-0.283582 0.5 0
-0.283647 0.470019 0
-0.253731 0.5 0
-0.253798 0.469819 0
-0.313433 0.5 0
-0.313491 0.470151 0
-0.283582 0.5 0
-0.283647 0.470019 0
-0.343284 0.5 0
-0.343348 0.470381 0
-0.313433 0.5 0
-0.313491 0.470151 0
-0.343284 0.5 0
-0.373134 0.5 0
-0.343348 0.470381 0
-0.373195 0.470395 0
-0.373134 0.5 0
-0.402985 0.5 0
-0.373195 0.470395 0
-0.403049 0.470404 0
-0.432836 0.5 0
-0.432937 0.470297 0
-0.402985 0.5 0
-0.403049 0.470404 0
-0.462687 0.5 0
-0.462848 0.469995 0
-0.432836 0.5 0
-0.432937 0.470297 0
-0.492537 0.5 0
-0.492807 0.469765 0
-0.462687 0.5 0
-0.462848 0.469995 0
-0.522388 0.5 0
-0.52276 0.46958 0
-0.492537 0.5 0
-0.492807 0.469765 0
-0.552239 0.5 0
-0.55273 0.469652 0
-0.522388 0.5 0
-0.52276 0.46958 0
-0.58209 0.5 0
-0.582662 0.469731 0
-0.552239 0.5 0
-0.55273 0.469652 0
-0.61194 0.5 0
-0.612594 0.469999 0
-0.58209 0.5 0
-0.582662 0.469731 0
-0.641791 0.5 0
-0.642647 0.470419 0
-0.61194 0.5 0
-0.612594 0.469999 0
-0.671642 0.5 0
-0.672638 0.470543 0
-0.641791 0.5 0
-0.642647 0.470419 0
-0.701493 0.5 0
-0.702968 0.4698 0
-0.671642 0.5 0
-0.672638 0.470543 0
-0.701493 0.5 0
-0.731343 0.5 0
-0.702968 0.4698 0
-0.733232 0.468149 0
-0.820896 0.5 0
-0.822797 0.47207 0
-0.791045 0.5 0
-0.795702 0.469563 0
0.31 -0.5 0
0.309694 -0.471123 0
0.28 -0.5 0
0.279811 -0.471266 0
0.31 -0.5 0
0.34 -0.5 0
0.309694 -0.471123 0
0.339686 -0.471033 0
0.37 -0.5 0
0.369721 -0.471055 0
0.34 -0.5 0
0.339686 -0.471033 0
0.37 -0.5 0
0.4 -0.5 0
0.369721 -0.471055 0
0.399756 -0.470957 0
0.4 -0.5 0
0.43 -0.5 0
0.399756 -0.470957 0
0.429805 -0.470822 0
0.43 -0.5 0
0.46 -0.5 0
0.429805 -0.470822 0
0.459835 -0.470712 0
0.46 -0.5 0
0.49 -0.5 0
0.459835 -0.470712 0
0.489873 -0.470554 0
0.49 -0.5 0
0.52 -0.5 0
0.489873 -0.470554 0
0.519906 -0.470379 0
0.52 -0.5 0
0.55 -0.5 0
0.519906 -0.470379 0
0.54993 -0.470248 0
0.55 -0.5 0
0.58 -0.5 0
0.54993 -0.470248 0
0.579948 -0.470155 0
0.58 -0.5 0
0.61 -0.5 0
0.579948 -0.470155 0
0.609962 -0.470091 0
0.61 -0.5 0
0.64 -0.5 0
0.609962 -0.470091 0
0.639972 -0.47005 0
0.64 -0.5 0
0.67 -0.5 0
0.639972 -0.47005 0
0.66998 -0.470026 0
0.67 -0.5 0
0.7 -0.5 0
0.66998 -0.470026 0
0.699986 -0.470013 0
0.7 -0.5 0
0.73 -0.5 0
0.699986 -0.470013 0
0.72999 -0.470006 0
0.73 -0.5 0
0.76 -0.5 0
0.72999 -0.470006 0
0.759994 -0.470003 0
0.76 -0.5 0
0.79 -0.5 0
0.759994 -0.470003 0
0.78998 -0.469916 0
0.79 -0.5 0
0.82 -0.5 0
0.78998 -0.469916 0
0.819956 -0.469877 0
0.82 -0.5 0
0.85 -0.5 0
0.819956 -0.469877 0
0.849929 -0.469833 0
0.85 -0.5 0
0.88 -0.5 0
0.849929 -0.469833 0
0.879924 -0.469805 0
0.88 -0.5 0
0.91 -0.5 0
0.879924 -0.469805 0
0.909913 -0.469792 0
0.91 -0.5 0
0.94 -0.5 0
0.909913 -0.469792 0
0.939922 -0.469775 0
0.94 -0.5 0
0.97 -0.5 0
0.939922 -0.469775 0
0.969956 -0.46974 0
0.97 -0.5 0
1 -0.5 0
0.969956 -0.46974 0
1 -0.469697 0
-0.617021 0.117021 0
-0.595665 0.139192 0
-0.638298 0.138298 0
-0.616915 0.16063 0
-0.617021 0.117021 0
-0.595745 0.095745 0
-0.595665 0.139192 0
-0.574431 0.117764 0
-0.595745 0.095745 0
-0.574468 0.074468 0
-0.574431 0.117764 0
-0.553204 0.096309 0
-0.553191 0.053191 0
-0.53184 0.075023 0
-0.574468 0.074468 0
-0.553204 0.096309 0
-0.553191 0.053191 0
-0.531915 0.031915 0
-0.53184 0.075023 0
-0.510492 0.053733 0
-0.531915 0.031915 0
-0.510638 0.010638 0
-0.510492 0.053733 0
-0.489127 0.032461 0
-0.510638 0.010638 0
-0.489362 -0.010638 0
-0.489127 0.032461 0
-0.467791 0.011178 0
-0.489362 -0.010638 0
-0.468085 -0.031915 0
-0.467791 0.011178 0
-0.446536 -0.010172 0
-0.446809 -0.053191 0
-0.42524 -0.031466 0
-0.468085 -0.031915 0
-0.446536 -0.010172 0
-0.425532 -0.074468 0
-0.404012 -0.052824 0
-0.446809 -0.053191 0
-0.42524 -0.031466 0
-0.425532 -0.074468 0
-0.404255 -0.095745 0
-0.404012 -0.052824 0
-0.382783 -0.074175 0
-0.404255 -0.095745 0
-0.382979 -0.117021 0
-0.382783 -0.074175 0
-0.361545 -0.095511 0
-0.382979 -0.117021 0
-0.361702 -0.138298 0
-0.361545 -0.095511 0
-0.340288 -0.116831 0
-0.361702 -0.138298 0
-0.340426 -0.159574 0
-0.340288 -0.116831 0
-0.319034 -0.138159 0
-0.340426 -0.159574 0
-0.319149 -0.180851 0
-0.319034 -0.138159 0
-0.297766 -0.159484 0
-0.319149 -0.180851 0
-0.297872 -0.202128 0
-0.297766 -0.159484 0
-0.276489 -0.180797 0
-0.297872 -0.202128 0
-0.276596 -0.223404 0
-0.276489 -0.180797 0
-0.255087 -0.202105 0
-0.255319 -0.244681 0
-0.233674 -0.223466 0
-0.276596 -0.223404 0
-0.255087 -0.202105 0
-0.234043 -0.265957 0
-0.212119 -0.244916 0
-0.255319 -0.244681 0
-0.233674 -0.223466 0
-0.234043 -0.265957 0
-0.212766 -0.287234 0
-0.212119 -0.244916 0
-0.190657 -0.266392 0
-0.191489 -0.308511 0
-0.169261 -0.287934 0
-0.212766 -0.287234 0
-0.190657 -0.266392 0
-0.170213 -0.329787 0
-0.147854 -0.309624 0
-0.191489 -0.308511 0
-0.169261 -0.287934 0
-0.170213 -0.329787 0
-0.148936 -0.351064 0
-0.147854 -0.309624 0
-0.126431 -0.331364 0
-0.12766 -0.37234 0
-0.105256 -0.353368 0
-0.148936 -0.351064 0
-0.126431 -0.331364 0
-0.12766 -0.37234 0
-0.106383 -0.393617 0
-0.105256 -0.353368 0
-0.083924 -0.375263 0
-0.106383 -0.393617 0
-0.085106 -0.414894 0
-0.083924 -0.375263 0
-0.062097 -0.396824 0
-0.085106 -0.414894 0
-0.06383 -0.43617 0
-0.062097 -0.396824 0
-0.040132 -0.418076 0
-0.06383 -0.43617 0
-0.042553 -0.457447 0
-0.040132 -0.418076 0
-0.019646 -0.439891 0
-0.042553 -0.457447 0
-0.021277 -0.478723 0
-0.019646 -0.439891 0
-0.002475 -0.461393 0
-0.021277 -0.478723 0
0 -0.5 0
-0.002475 -0.461393 0
0.009599 -0.478226 0
0 -0.5 0
0.03 -0.5 0
0.009599 -0.478226 0
0.029922 -0.474701 0
0.03 -0.5 0
0.06 -0.5 0
[...]
POINT_DATA 7360
VECTORS momentum double
-0.000330201 -0.000168776 0
-0.00318112 0.00246058 0
0.000533479 -0.000505944 0
-0.000495404 0.00405208 0
-3.19777e-05 -0.00040263 0
7.32329e-05 -0.000406599 0
1.98941e-05 -0.000905796 0
6.43249e-05 -0.000860655 0
-0.000175438 -0.00055447 0
1.98941e-05 -0.000905796 0
7.6453e-05 -0.000592218 0
6.43249e-05 -0.000860655 0
-3.36702e-05 -0.000999992 0
-0.000175438 -0.00055447 0
-1.86294e-06 -0.00109872 0
7.6453e-05 -0.000592218 0
4.92024e-05 -0.000714261 0
-3.36702e-05 -0.000999992 0
-1.02016e-05 -0.000826302 0
-1.86294e-06 -0.00109872 0
6.62731e-05 -0.00105835 0
4.92024e-05 -0.000714261 0
-4.31433e-05 -0.00105203 0
-1.02016e-05 -0.000826302 0
0.000214153 -0.000817447 0
6.62731e-05 -0.00105835 0
1.87825e-05 -0.000778533 0
-4.31433e-05 -0.00105203 0
1.70211e-05 -0.00137023 0
0.000214153 -0.000817447 0
-6.59281e-05 -0.000643002 0
1.87825e-05 -0.000778533 0
-0.00048518 -0.000913873 0
1.70211e-05 -0.00137023 0
-0.000753768 -0.00104663 0
-6.59281e-05 -0.000643002 0
-0.000357718 -0.00134687 0
-0.000753768 -0.00104663 0
-7.68583e-05 -0.000428891 0
-6.59281e-05 -0.000643002 0
-0.000168913 -0.00141446 0
-0.000357718 -0.00134687 0
-0.000458582 -0.000485763 0
-7.68583e-05 -0.000428891 0
8.56061e-05 -0.000935742 0
-0.000168913 -0.00141446 0
-0.000173448 -0.000534015 0
-0.000458582 -0.000485763 0
6.37384e-07 -0.00067935 0
8.56061e-05 -0.000935742 0
-0.000204962 -0.00102734 0
-0.000173448 -0.000534015 0
-7.71657e-05 -0.000557969 0
-0.000204962 -0.00102734 0
5.93231e-08 -0.000476788 0
-0.000173448 -0.000534015 0
-3.14306e-05 -0.000857274 0
-7.71657e-05 -0.000557969 0
-9.33558e-06 -0.000847774 0
5.93231e-08 -0.000476788 0
2.54703e-06 -0.00049303 0
-3.14306e-05 -0.000857274 0
-1.31884e-06 -0.000489067 0
-9.33558e-06 -0.000847774 0
-2.15904e-05 -0.00084119 0
2.54703e-06 -0.00049303 0
-1.71461e-06 -0.000841354 0
-1.31884e-06 -0.000489067 0
-1.77706e-06 -0.000437235 0
-2.15904e-05 -0.00084119 0
-2.70925e-07 -0.000433761 0
-1.71461e-06 -0.000841354 0
-2.34949e-05 -0.000857686 0
-1.77706e-06 -0.000437235 0
-1.90922e-06 -0.000857912 0
-2.70925e-07 -0.000433761 0
3.04884e-06 -0.000382506 0
-2.34949e-05 -0.000857686 0
1.16906e-06 -0.000379409 0
-1.90922e-06 -0.000857912 0
-4.936e-05 -0.00065565 0
-3.93257e-05 -0.00169488 0
-4.81447e-05 -0.000655803 0
-3.515e-05 -0.00169442 0
-4.67964e-05 -0.000656215 0
-4.00895e-05 -0.00169752 0
-4.936e-05 -0.00065565 0
-3.93257e-05 -0.00169488 0
-4.23357e-05 -0.000655844 0
-3.52217e-05 -0.00169996 0
-4.67964e-05 -0.000656215 0
-4.00895e-05 -0.00169752 0
-3.64098e-05 -0.000654968 0
-2.9643e-05 -0.00170209 0
-4.23357e-05 -0.000655844 0
-3.52217e-05 -0.00169996 0
-2.87591e-05 -0.000654293 0
-2.08995e-05 -0.00170453 0
-3.64098e-05 -0.000654968 0
-2.9643e-05 -0.00170209 0
-1.96285e-05 -0.00065288 0
-1.11507e-05 -0.0017069 0
-2.87591e-05 -0.000654293 0
-2.08995e-05 -0.00170453 0
-7.78745e-06 -0.000652137 0
4.52545e-07 -0.00170938 0
-1.96285e-05 -0.00065288 0
-1.11507e-05 -0.0017069 0
4.78582e-06 -0.000650566 0
1.34878e-05 -0.00171256 0
-7.78745e-06 -0.000652137 0
4.52545e-07 -0.00170938 0
2.02311e-05 -0.000649314 0
2.63816e-05 -0.00171586 0
4.78582e-06 -0.000650566 0
1.34878e-05 -0.00171256 0
3.60898e-05 -0.000648514 0
4.06887e-05 -0.00171975 0
2.02311e-05 -0.000649314 0
2.63816e-05 -0.00171586 0
5.4272e-05 -0.000647268 0
5.46522e-05 -0.00172337 0
3.60898e-05 -0.000648514 0
4.06887e-05 -0.00171975 0
7.31e-05 -0.000646524 0
6.4338e-05 -0.00172826 0
5.4272e-05 -0.000647268 0
5.46522e-05 -0.00172337 0
7.31e-05 -0.000646524 0
8.80171e-05 -0.000647124 0
6.4338e-05 -0.00172826 0
7.39281e-05 -0.00173369 0
0.000101136 -0.000647468 0
7.94382e-05 -0.00174097 0
8.80171e-05 -0.000647124 0
7.39281e-05 -0.00173369 0
0.000108778 -0.00065017 0
8.27945e-05 -0.0017472 0
0.000101136 -0.000647468 0
7.94382e-05 -0.00174097 0
0.000107337 -0.000652854 0
8.84875e-05 -0.00175101 0
0.000108778 -0.00065017 0
8.27945e-05 -0.0017472 0
0.000106286 -0.000654084 0
9.14516e-05 -0.00175154 0
0.000107337 -0.000652854 0
8.84875e-05 -0.00175101 0
9.50244e-05 -0.000656121 0
8.8799e-05 -0.00175053 0
0.000106286 -0.000654084 0
9.14516e-05 -0.00175154 0
7.63054e-05 -0.000656757 0
8.16532e-05 -0.00174866 0
9.50244e-05 -0.000656121 0
8.8799e-05 -0.00175053 0
5.71185e-05 -0.000655866 0
6.83582e-05 -0.00174636 0
7.63054e-05 -0.000656757 0
8.16532e-05 -0.00174866 0
4.26557e-05 -0.000654118 0
5.08877e-05 -0.00174653 0
5.71185e-05 -0.000655866 0
6.83582e-05 -0.00174636 0
2.91272e-05 -0.000654234 0
3.22485e-05 -0.00174629 0
4.26557e-05 -0.000654118 0
5.08877e-05 -0.00174653 0
1.50578e-05 -0.000654085 0
1.90708e-05 -0.0017504 0
2.91272e-05 -0.000654234 0
3.22485e-05 -0.00174629 0
2.40407e-06 -0.0006543 0
1.18322e-06 -0.00175235 0
1.50578e-05 -0.000654085 0
1.90708e-05 -0.0017504 0
-4.49993e-06 -0.000655674 0
-1.23631e-05 -0.00175131 0
2.40407e-06 -0.0006543 0
1.18322e-06 -0.00175235 0
-2.4e-05 -0.000659277 0
-3.04135e-05 -0.00174855 0
-4.49993e-06 -0.000655674 0
-1.23631e-05 -0.00175131 0
-4.29281e-05 -0.00066353 0
-3.85329e-05 -0.00174406 0
-2.4e-05 -0.000659277 0
-3.04135e-05 -0.00174855 0
-6.45174e-05 -0.000662848 0
-5.03149e-05 -0.00174432 0
-4.29281e-05 -0.00066353 0
-3.85329e-05 -0.00174406 0
-7.1491e-05 -0.000660422 0
-5.35637e-05 -0.00174455 0
-6.45174e-05 -0.000662848 0
-5.03149e-05 -0.00174432 0
-8.40329e-05 -0.000656635 0
-6.29265e-05 -0.00174576 0
-7.1491e-05 -0.000660422 0
-5.35637e-05 -0.00174455 0
-7.74154e-05 -0.000651686 0
-5.51249e-05 -0.00174297 0
-8.40329e-05 -0.000656635 0
-6.29265e-05 -0.00174576 0
-7.8326e-05 -0.000646645 0
-5.90798e-05 -0.00173702 0
-7.74154e-05 -0.000651686 0
-5.51249e-05 -0.00174297 0
-5.38462e-05 -0.000644238 0
-3.8792e-05 -0.00171671 0
-7.8326e-05 -0.000646645 0
-5.90798e-05 -0.00173702 0
-4.91678e-05 -0.000642632 0
-3.021e-05 -0.00168825 0
-5.38462e-05 -0.000644238 0
-3.8792e-05 -0.00171671 0
-1.60202e-05 -0.000640034 0
4.41085e-06 -0.00163325 0
-4.91678e-05 -0.000642632 0
-3.021e-05 -0.00168825 0
-2.55068e-05 -0.000638111 0
-5.17497e-06 -0.00155655 0
-1.60202e-05 -0.000640034 0
4.41085e-06 -0.00163325 0
-4.0221e-05 -0.000636016 0
-9.24218e-06 -0.00143091 0
-2.55068e-05 -0.000638111 0
-5.17497e-06 -0.00155655 0
-0.000159307 -0.00063432 0
-0.000104161 -0.00126433 0
-4.0221e-05 -0.000636016 0
-9.24218e-06 -0.00143091 0
-0.000326308 -0.000630898 0
-0.000247998 -0.00101931 0
-0.000159307 -0.00063432 0
-0.000104161 -0.00126433 0
-0.000326308 -0.000630898 0
-0.000704132 -0.000626873 0
-0.000247998 -0.00101931 0
-0.000575894 -0.000712134 0
-0.00124782 -0.00061194 0
-0.00106506 -0.000290869 0
-0.000704132 -0.000626873 0
-0.000575894 -0.000712134 0
-0.00219805 -0.000594223 0
-0.00194007 0.000229033 0
-0.00124782 -0.00061194 0
-0.00106506 -0.000290869 0
-0.00357164 -0.000563962 0
-0.00326809 0.000943832 0
-0.00219805 -0.000594223 0
-0.00194007 0.000229033 0
-0.0057607 -0.000532974 0
-0.00538628 0.00180081 0
-0.00357164 -0.000563962 0
-0.00326809 0.000943832 0
-0.00888329 -0.000483488 0
-0.00849626 0.00296793 0
-0.0057607 -0.000532974 0
-0.00538628 0.00180081 0
-0.00888329 -0.000483488 0
-0.013537 -0.000435276 0
-0.00849626 0.00296793 0
-0.0130911 0.0043817 0
-0.013537 -0.000435276 0
-0.0199837 -0.000363058 0
-0.0130911 0.0043817 0
-0.019589 0.00635204 0
-0.0290681 -0.000310476 0
-0.0286001 0.00866996 0
-0.0199837 -0.000363058 0
-0.019589 0.00635204 0
-0.0411478 -0.000207804 0
-0.0408489 0.0119527 0
-0.0290681 -0.000310476 0
-0.0286001 0.00866996 0
-0.0572663 -0.000180781 0
-0.0567949 0.0155585 0
-0.0411478 -0.000207804 0
-0.0408489 0.0119527 0
-0.0776021 -1.63907e-05 0
-0.0776034 0.0203559 0
-0.0572663 -0.000180781 0
-0.0567949 0.0155585 0
-0.10337 -7.29691e-05 0
-0.102844 0.0251097 0
-0.0776021 -1.63907e-05 0
-0.0776034 0.0203559 0
-0.134492 0.000275821 0
-0.135147 0.0321054 0
-0.10337 -7.29691e-05 0
-0.102844 0.0251097 0
-0.173071 5.81597e-06 0
-0.171733 0.0380495 0
-0.134492 0.000275821 0
-0.135147 0.0321054 0
-0.218226 0.000749291 0
-0.218855 0.049889 0
-0.173071 5.81597e-06 0
-0.171733 0.0380495 0
-0.275168 0.00158689 0
-0.267577 0.0524831 0
-0.218226 0.000749291 0
-0.218855 0.049889 0
-0.320782 0.000347957 0
-0.328256 0.0435666 0
-0.275168 0.00158689 0
-0.267577 0.0524831 0
-0.320782 0.000347957 0
-0.340744 0.000994559 0
-0.328256 0.0435666 0
-0.365851 0.00668795 0
-0.194151 -0.00451177 0
-0.177455 -0.0368434 0
-0.254411 -0.00183152 0
-0.235852 -0.0806132 0
-1.13271e-05 -0.000392135 0
-3.792e-05 -0.000855887 0
3.04884e-06 -0.000382506 0
-2.34949e-05 -0.000857686 0
-1.13271e-05 -0.000392135 0
-3.21683e-05 -0.00039876 0
-3.792e-05 -0.000855887 0
-4.4751e-05 -0.000856016 0
-4.81385e-05 -0.000402393 0
-5.70187e-05 -0.000856009 0
-3.21683e-05 -0.00039876 0
-4.4751e-05 -0.000856016 0
-4.81385e-05 -0.000402393 0
-5.5543e-05 -0.000405869 0
-5.70187e-05 -0.000856009 0
-6.72312e-05 -0.00085643 0
-5.5543e-05 -0.000405869 0
-6.22233e-05 -0.000408654 0
-6.72312e-05 -0.00085643 0
-7.38362e-05 -0.000858857 0
-6.22233e-05 -0.000408654 0
-6.80429e-05 -0.000410776 0
-7.38362e-05 -0.000858857 0
-7.70275e-05 -0.000862696 0
-6.80429e-05 -0.000410776 0
-7.1201e-05 -0.000411224 0
-7.70275e-05 -0.000862696 0
-8.2548e-05 -0.000867731 0
-7.1201e-05 -0.000411224 0
-7.48809e-05 -0.00041368 0
-8.2548e-05 -0.000867731 0
-8.89572e-05 -0.000871926 0
-7.48809e-05 -0.00041368 0
-8.1598e-05 -0.000415915 0
-8.89572e-05 -0.000871926 0
-9.29589e-05 -0.000875367 0
-8.1598e-05 -0.000415915 0
-8.97608e-05 -0.000417938 0
-9.29589e-05 -0.000875367 0
-9.77654e-05 -0.000878522 0
-8.97608e-05 -0.000417938 0
-9.78363e-05 -0.000419083 0
-9.77654e-05 -0.000878522 0
-0.000103092 -0.000880792 0
-9.78363e-05 -0.000419083 0
-0.000106758 -0.000420251 0
-0.000103092 -0.000880792 0
-0.000109701 -0.000882552 0
-0.000106758 -0.000420251 0
-0.000115031 -0.00042061 0
-0.000109701 -0.000882552 0
-0.000115609 -0.000883814 0
-0.000115031 -0.00042061 0
-0.000123419 -0.000420967 0
-0.000115609 -0.000883814 0
-0.000122693 -0.000885025 0
-0.000123419 -0.000420967 0
-0.000129215 -0.000421111 0
-0.000122693 -0.000885025 0
-0.000128535 -0.000886545 0
-0.000129215 -0.000421111 0
-0.000132457 -0.000421332 0
-0.000128535 -0.000886545 0
-0.000135166 -0.000888749 0
-0.000132457 -0.000421332 0
-0.000134631 -0.000422073 0
-0.000135166 -0.000888749 0
-0.000139191 -0.000890496 0
-0.000134631 -0.000422073 0
-0.000136762 -0.000422983 0
-0.000139191 -0.000890496 0
-0.000140727 -0.00089295 0
-0.000136762 -0.000422983 0
-0.000135894 -0.000423954 0
-0.000140727 -0.00089295 0
-0.000139051 -0.00089564 0
-0.000135894 -0.000423954 0
-0.000135154 -0.000424738 0
-0.000139051 -0.00089564 0
-0.000136768 -0.000898367 0
-0.000135154 -0.000424738 0
-0.000130179 -0.000425067 0
-0.000136768 -0.000898367 0
-0.000131348 -0.000901272 0
-0.000130179 -0.000425067 0
-0.000124262 -0.000425576 0
-0.000131348 -0.000901272 0
-0.000125446 -0.000903637 0
-0.000124262 -0.000425576 0
-0.000114474 -0.000425658 0
-0.000125446 -0.000903637 0
-0.000115881 -0.000905463 0
-0.000114474 -0.000425658 0
-0.000105669 -0.000425648 0
-0.000115881 -0.000905463 0
-0.000107851 -0.000906261 0
0.150127 -0.144087 0
0.173952 -0.0852668 0
0.244213 -0.236948 0
0.265137 -0.0894554 0
0.150127 -0.144087 0
0.105401 -0.104574 0
0.173952 -0.0852668 0
0.12253 -0.0730053 0
0.105401 -0.104574 0
0.081219 -0.0806933 0
0.12253 -0.0730053 0
0.0924599 -0.0617241 0
0.0651089 -0.0651136 0
0.0726012 -0.0521486 0
0.081219 -0.0806933 0
0.0924599 -0.0617241 0
0.0651089 -0.0651136 0
0.0539645 -0.0540538 0
0.0726012 -0.0521486 0
0.0590942 -0.0450229 0
0.0539645 -0.0540538 0
0.0454034 -0.045653 0
0.0590942 -0.0450229 0
0.048946 -0.0389629 0
0.0454034 -0.045653 0
0.0386632 -0.0389439 0
0.048946 -0.0389629 0
0.0411102 -0.0339856 0
0.0386632 -0.0389439 0
0.0329781 -0.0333267 0
0.0411102 -0.0339856 0
0.0346269 -0.0295306 0
0.0281021 -0.0284687 0
0.0291771 -0.0255618 0
0.0329781 -0.0333267 0
0.0346269 -0.0295306 0
0.0237928 -0.0241976 0
0.0244308 -0.0219445 0
0.0281021 -0.0284687 0
0.0291771 -0.0255618 0
0.0237928 -0.0241976 0
0.0199814 -0.0204009 0
0.0244308 -0.0219445 0
0.0203003 -0.0186678 0
0.0199814 -0.0204009 0
0.0166142 -0.0170538 0
0.0203003 -0.0186678 0
0.0166872 -0.0157136 0
0.0166142 -0.0170538 0
0.0136625 -0.0141084 0
0.0166872 -0.0157136 0
0.0135544 -0.0130861 0
0.0136625 -0.0141084 0
0.0111246 -0.0115779 0
0.0135544 -0.0130861 0
0.0108716 -0.0107965 0
0.0111246 -0.0115779 0
0.00895847 -0.00941421 0
0.0108716 -0.0107965 0
0.00860211 -0.00882146 0
0.00895847 -0.00941421 0
0.00716733 -0.00762477 0
0.00860211 -0.00882146 0
0.00673185 -0.00717409 0
0.00716733 -0.00762477 0
0.00568145 -0.0061404 0
0.00673185 -0.00717409 0
0.0051889 -0.00580645 0
0.00451008 -0.00495921 0
0.00397326 -0.00471827 0
0.00568145 -0.0061404 0
0.0051889 -0.00580645 0
0.00356032 -0.00400283 0
0.00296675 -0.00382985 0
0.00451008 -0.00495921 0
0.00397326 -0.00471827 0
0.00356032 -0.00400283 0
0.00284903 -0.00329641 0
0.00296675 -0.00382985 0
0.00223071 -0.00314802 0
0.00226065 -0.00272319 0
0.00163359 -0.00259313 0
0.00284903 -0.00329641 0
0.00223071 -0.00314802 0
0.00184932 -0.00234104 0
0.00127144 -0.0022038 0
0.00226065 -0.00272319 0
0.00163359 -0.00259313 0
0.00184932 -0.00234104 0
0.00148242 -0.00197494 0
0.00127144 -0.0022038 0
0.000927638 -0.00190983 0
0.00131453 -0.00179255 0
0.00074713 -0.00175479 0
0.00148242 -0.00197494 0
0.000927638 -0.00190983 0
0.00131453 -0.00179255 0
0.00112801 -0.00160655 0
0.00074713 -0.00175479 0
0.000529972 -0.00156719 0
0.00112801 -0.00160655 0
0.00107495 -0.00156963 0
0.000529972 -0.00156719 0
0.000544677 -0.00151708 0
0.00107495 -0.00156963 0
0.0008696 -0.00136619 0
0.000544677 -0.00151708 0
0.000406475 -0.00126244 0
0.0008696 -0.00136619 0
0.000663803 -0.00112744 0
0.000406475 -0.00126244 0
0.000592404 -0.00137302 0
0.000663803 -0.00112744 0
0.000466427 -0.00078403 0
0.000592404 -0.00137302 0
0.000346675 -0.000715455 0
0.000466427 -0.00078403 0
0.000230891 -0.000501724 0
0.000346675 -0.000715455 0
0.000234191 -0.00100028 0
0.000230891 -0.000501724 0
0.00050748 -0.000283495 0
0.000234191 -0.00100028 0
0.000386738 -0.000788414 0
0.00050748 -0.000283495 0
0.000393157 -0.000372808 0
0.000386738 -0.000788414 0
-3.74003e-05 -0.000855132 0
0.000393157 -0.000372808 0
0.000275163 -0.000449634 0
-3.74003e-05 -0.000855132 0
0.000189219 -0.000797418 0
0.000275163 -0.000449634 0
-3.19777e-05 -0.00040263 0
0.000189219 -0.000797418 0
1.98941e-05 -0.000905796 0
-0.000115881 -0.000905463 0
-0.000107851 -0.000906261 0
-0.00011759 -0.000558206 0
-0.000110284 -0.000561593 0
-0.00011759 -0.000558206 0
-0.000110284 -0.000561593 0
-0.000122415 -0.00093502 0
-0.000115827 -0.000937774 0
-0.000122415 -0.00093502 0
-0.000115827 -0.000937774 0
-0.000129515 -0.00068945 0
-0.000122349 -0.0006936 0
-0.000129515 -0.00068945 0
-0.000122349 -0.0006936 0
-0.000137457 -0.000988137 0
-0.000132445 -0.00099342 0
-0.000137457 -0.000988137 0
-0.000132445 -0.00099342 0
-0.000148227 -0.000825718 0
-0.000142486 -0.000831574 0
-0.000148227 -0.000825718 0
-0.000142486 -0.000831574 0
-0.000158968 -0.00107023 0
-0.000154756 -0.00107748 0
-0.000172984 -0.000980035 0
-0.000158968 -0.00107023 0
-0.000168384 -0.000988235 0
-0.000154756 -0.00107748 0
-0.000172984 -0.000980035 0
-0.000168384 -0.000988235 0
-0.000188246 -0.00118977 0
-0.00018435 -0.00119913 0
-0.000188246 -0.00118977 0
-0.00018435 -0.00119913 0
-0.000206742 -0.00116335 0
-0.000202987 -0.00117441 0
-0.000206742 -0.00116335 0
-0.000202987 -0.00117441 0
-0.000228696 -0.00134992 0
-0.000226111 -0.00136241 0
-0.000228696 -0.00134992 0
-0.000226111 -0.00136241 0
-0.000254755 -0.00137572 0
-0.000253777 -0.00139068 0
-0.000254755 -0.00137572 0
-0.000253777 -0.00139068 0
-0.000286916 -0.00153669 0
-0.000290818 -0.00155413 0
-0.000286916 -0.00153669 0
-0.000290818 -0.00155413 0
-0.000324232 -0.00159159 0
-0.000335241 -0.00161167 0
-0.000324232 -0.00159159 0
-0.000335241 -0.00161167 0
-0.000367809 -0.0017042 0
-0.000391179 -0.00172691 0
-0.000367809 -0.0017042 0
-0.000391179 -0.00172691 0
-0.000413337 -0.00175072 0
-0.000453406 -0.0017741 0
-0.000413337 -0.00175072 0
-0.000453406 -0.0017741 0
-0.000456908 -0.00177721 0
-0.000517559 -0.00179884 0
-0.000456908 -0.00177721 0
-0.000517559 -0.00179884 0
-0.000488393 -0.00178034 0
-0.000569426 -0.00179513 0
-0.000488393 -0.00178034 0
-0.000569426 -0.00179513 0
-0.000499069 -0.00169788 0
-0.000593445 -0.00170135 0
-0.000499069 -0.00169788 0
-0.000593445 -0.00170135 0
-0.000481947 -0.00166709 0
-0.000575243 -0.001656 0
-0.000481947 -0.00166709 0
-0.000575243 -0.001656 0
-0.000438603 -0.00150376 0
-0.000516669 -0.00148224 0
-0.000438603 -0.00150376 0
-0.000516669 -0.00148224 0
-0.00037859 -0.00150103 0
-0.000435111 -0.00147309 0
-0.00037859 -0.00150103 0
-0.000435111 -0.00147309 0
-0.000311099 -0.00129879 0
-0.000346503 -0.00127081 0
-0.000311099 -0.00129879 0
-0.000346503 -0.00127081 0
-0.000249495 -0.001379 0
-0.000267571 -0.00135244 0
-0.000249495 -0.001379 0
-0.000267571 -0.00135244 0
-0.000190701 -0.00114025 0
-0.000197093 -0.00111977 0
-0.000190701 -0.00114025 0
-0.000197093 -0.00111977 0
-0.000151382 -0.00133383 0
-0.000152801 -0.00131535 0
-0.000151382 -0.00133383 0
-0.000152801 -0.00131535 0
-0.000109784 -0.00102719 0
-0.000106576 -0.00101196 0
-0.000109784 -0.00102719 0
-0.000106576 -0.00101196 0
-8.35089e-05 -0.00137582 0
-8.07738e-05 -0.00136302 0
-8.35089e-05 -0.00137582 0
-8.07738e-05 -0.00136302 0
-5.30324e-05 -0.000938792 0
-4.78254e-05 -0.000930049 0
-5.30324e-05 -0.000938792 0
-4.78254e-05 -0.000930049 0
-4.59189e-05 -0.00149724 0
-4.19179e-05 -0.00149297 0
-4.59189e-05 -0.00149724 0
-4.19179e-05 -0.00149297 0
-3.78606e-05 -0.000834105 0
-3.44527e-05 -0.000830563 0
-3.78606e-05 -0.000834105 0
-3.44527e-05 -0.000830563 0
-3.93257e-05 -0.00169488 0
-3.515e-05 -0.00169442 0
0.173952 -0.0852668 0
0.164657 -0.0207367 0
0.265137 -0.0894554 0
0.215869 0.014609 0
0.173952 -0.0852668 0
0.12253 -0.0730053 0
0.164657 -0.0207367 0
0.12263 -0.0322597 0
0.12253 -0.0730053 0
0.0924599 -0.0617241 0
0.12263 -0.0322597 0
0.0947563 -0.035406 0
0.0726012 -0.0521486 0
0.0753024 -0.0343953 0
0.0924599 -0.0617241 0
0.0947563 -0.035406 0
0.0726012 -0.0521486 0
0.0590942 -0.0450229 0
0.0753024 -0.0343953 0
0.0614036 -0.0322508 0
0.0590942 -0.0450229 0
0.048946 -0.0389629 0
0.0614036 -0.0322508 0
0.0508812 -0.0295997 0
0.048946 -0.0389629 0
0.0411102 -0.0339856 0
0.0508812 -0.0295997 0
0.0426294 -0.0267768 0
0.0411102 -0.0339856 0
0.0346269 -0.0295306 0
0.0426294 -0.0267768 0
0.0358111 -0.0239364 0
0.0291771 -0.0255618 0
0.0300667 -0.0211104 0
0.0346269 -0.0295306 0
0.0358111 -0.0239364 0
0.0244308 -0.0219445 0
0.0250625 -0.0184103 0
0.0291771 -0.0255618 0
0.0300667 -0.0211104 0
0.0244308 -0.0219445 0
0.0203003 -0.0186678 0
0.0250625 -0.0184103 0
0.0207327 -0.0158072 0
0.0203003 -0.0186678 0
0.0166872 -0.0157136 0
0.0207327 -0.0158072 0
0.0169408 -0.0133957 0
0.0166872 -0.0157136 0
0.0135544 -0.0130861 0
0.0169408 -0.0133957 0
0.0136911 -0.0111814 0
0.0135544 -0.0130861 0
0.0108716 -0.0107965 0
0.0136911 -0.0111814 0
0.0109114 -0.00921279 0
0.0108716 -0.0107965 0
0.00860211 -0.00882146 0
0.0109114 -0.00921279 0
0.00857951 -0.00749801 0
0.00860211 -0.00882146 0
0.00673185 -0.00717409 0
0.00857951 -0.00749801 0
0.00664126 -0.00604821 0
0.00673185 -0.00717409 0
0.0051889 -0.00580645 0
0.00664126 -0.00604821 0
0.00506718 -0.00483579 0
0.00397326 -0.00471827 0
0.00382986 -0.00383345 0
0.0051889 -0.00580645 0
0.00506718 -0.00483579 0
0.00296675 -0.00382985 0
0.00285512 -0.00303942 0
0.00397326 -0.00471827 0
0.00382986 -0.00383345 0
0.00296675 -0.00382985 0
0.00223071 -0.00314802 0
0.00285512 -0.00303942 0
0.00212544 -0.00242492 0
0.00163359 -0.00259313 0
0.0015275 -0.00198798 0
0.00223071 -0.00314802 0
0.00212544 -0.00242492 0
0.00127144 -0.0022038 0
0.0011101 -0.00165326 0
0.00163359 -0.00259313 0
0.0015275 -0.00198798 0
0.00127144 -0.0022038 0
0.000927638 -0.00190983 0
0.0011101 -0.00165326 0
0.00071408 -0.0013506 0
0.00074713 -0.00175479 0
0.00053556 -0.00112164 0
0.000927638 -0.00190983 0
0.00071408 -0.0013506 0
0.00074713 -0.00175479 0
0.000529972 -0.00156719 0
0.00053556 -0.00112164 0