# vtk DataFile Version 3.0
#This file was generated by the deal.II library on 2016/12/20 at 10:57:11
ASCII
DATASET UNSTRUCTURED_GRID

POINTS 7552 double
0.12 -0.5 0
0.15 -0.5 0
0.119014 -0.4708 0
0.15 -0.471429 0
0.11755 -0.441479 0
0.119014 -0.4708 0
0.15 -0.442857 0
0.15 -0.471429 0
0.117242 -0.412206 0
0.11755 -0.441479 0
0.15 -0.414286 0
0.15 -0.442857 0
0.118129 -0.383064 0
0.117242 -0.412206 0
0.15 -0.385714 0
0.15 -0.414286 0
0.12021 -0.354337 0
0.118129 -0.383064 0
0.15 -0.357143 0
0.15 -0.385714 0
0.121793 -0.32584 0
0.12021 -0.354337 0
0.15 -0.328571 0
0.15 -0.357143 0
0.122717 -0.296869 0
0.121793 -0.32584 0
0.15 -0.3 0
0.15 -0.328571 0
0.123759 -0.266752 0
0.122717 -0.296869 0
0.153091 -0.267708 0
0.15 -0.3 0
0.18456 -0.26795 0
0.153091 -0.267708 0
0.183333 -0.3 0
0.15 -0.3 0
0.216606 -0.268111 0
0.18456 -0.26795 0
0.216667 -0.3 0
0.183333 -0.3 0
0.24835 -0.26841 0
0.216606 -0.268111 0
0.25 -0.3 0
0.216667 -0.3 0
0.278782 -0.268564 0
0.24835 -0.26841 0
0.279437 -0.298917 0
0.25 -0.3 0
0.279638 -0.328111 0
0.279437 -0.298917 0
0.25 -0.328571 0
0.25 -0.3 0
0.27971 -0.356801 0
0.279638 -0.328111 0
0.25 -0.357143 0
0.25 -0.328571 0
0.279677 -0.385395 0
0.27971 -0.356801 0
0.25 -0.385714 0
0.25 -0.357143 0
0.279641 -0.413938 0
0.279677 -0.385395 0
0.25 -0.414286 0
0.25 -0.385714 0
0.279666 -0.442534 0
0.279641 -0.413938 0
0.25 -0.442857 0
0.25 -0.414286 0
0.279811 -0.471266 0
0.279666 -0.442534 0
0.25 -0.471429 0
0.25 -0.442857 0
0.28 -0.5 0
0.279811 -0.471266 0
0.25 -0.5 0
0.25 -0.471429 0
0.970149 0.5 0
0.970096 0.46978 0
1 0.5 0
1 0.469697 0
0.940299 0.5 0
0.940231 0.46984 0
0.970149 0.5 0
0.970096 0.46978 0
0.910448 0.5 0
0.910371 0.469856 0
0.940299 0.5 0
0.940231 0.46984 0
0.880597 0.5 0
0.880527 0.469909 0
0.910448 0.5 0
0.910371 0.469856 0
0.850746 0.5 0
0.850684 0.469926 0
0.880597 0.5 0
0.880527 0.469909 0
0.820896 0.5 0
0.820842 0.469978 0
0.850746 0.5 0
0.850684 0.469926 0
0.791045 0.5 0
0.791001 0.470016 0
0.820896 0.5 0
0.820842 0.469978 0
0.761194 0.5 0
0.761159 0.470055 0
0.791045 0.5 0
0.791001 0.470016 0
0.731343 0.5 0
0.731316 0.470091 0
0.761194 0.5 0
0.761159 0.470055 0
0.701493 0.5 0
0.701472 0.470118 0
0.731343 0.5 0
0.731316 0.470091 0
0.671642 0.5 0
0.671627 0.470134 0
0.701493 0.5 0
0.701472 0.470118 0
0.641791 0.5 0
0.64178 0.470142 0
0.671642 0.5 0
0.671627 0.470134 0
0.641791 0.5 0
0.61194 0.5 0
0.64178 0.470142 0
0.611934 0.470065 0
0.58209 0.5 0
0.582089 0.470002 0
0.61194 0.5 0
0.611934 0.470065 0
0.552239 0.5 0
0.552248 0.469853 0
0.58209 0.5 0
0.582089 0.470002 0
0.522388 0.5 0
0.522413 0.469718 0
0.552239 0.5 0
0.552248 0.469853 0
0.492537 0.5 0
0.492577 0.469656 0
0.522388 0.5 0
0.522413 0.469718 0
0.462687 0.5 0
0.462743 0.469571 0
0.492537 0.5 0
0.492577 0.469656 0
0.432836 0.5 0
0.432895 0.46963 0
0.462687 0.5 0
0.462743 0.469571 0
0.402985 0.5 0
0.403046 0.469669 0
0.432836 0.5 0
0.432895 0.46963 0
0.373134 0.5 0
0.373191 0.469745 0
0.402985 0.5 0
0.403046 0.469669 0
0.343284 0.5 0
0.343335 0.469723 0
0.373134 0.5 0
0.373191 0.469745 0
0.313433 0.5 0
0.313478 0.469741 0
0.343284 0.5 0
0.343335 0.469723 0
0.283582 0.5 0
0.283622 0.469783 0
0.313433 0.5 0
0.313478 0.469741 0
0.253731 0.5 0
0.253768 0.469742 0
0.283582 0.5 0
0.283622 0.469783 0
0.223881 0.5 0
0.223918 0.469737 0
0.253731 0.5 0
0.253768 0.469742 0
0.19403 0.5 0
0.194064 0.46981 0
0.223881 0.5 0
0.223918 0.469737 0
0.164179 0.5 0
0.16421 0.469881 0
0.19403 0.5 0
0.194064 0.46981 0
0.134328 0.5 0
0.134355 0.46994 0
0.164179 0.5 0
0.16421 0.469881 0
0.104478 0.5 0
0.1045 0.469997 0
0.134328 0.5 0
0.134355 0.46994 0
0.074627 0.5 0
0.074645 0.470051 0
0.104478 0.5 0
0.1045 0.469997 0
0.044776 0.5 0
0.04479 0.470093 0
0.074627 0.5 0
0.074645 0.470051 0
0.014925 0.5 0
0.014935 0.47012 0
0.044776 0.5 0
0.04479 0.470093 0
-0.014925 0.5 0
-0.014918 0.470135 0
0.014925 0.5 0
0.014935 0.47012 0
-0.044776 0.5 0
-0.044771 0.470143 0
-0.014925 0.5 0
-0.014918 0.470135 0
-0.074627 0.5 0
-0.074623 0.470146 0
-0.044776 0.5 0
-0.044771 0.470143 0
-0.104478 0.5 0
-0.104496 0.469979 0
-0.074627 0.5 0
-0.074623 0.470146 0
-0.134328 0.5 0
-0.134359 0.469935 0
-0.104478 0.5 0
-0.104496 0.469979 0
-0.164179 0.5 0
-0.164225 0.469839 0
-0.134328 0.5 0
-0.134359 0.469935 0
-0.164179 0.5 0
-0.19403 0.5 0
-0.164225 0.469839 0
-0.194083 0.469797 0
-0.223881 0.5 0
-0.22394 0.469753 0
-0.19403 0.5 0
-0.194083 0.469797 0
-0.253731 0.5 0
-0.253798 0.469819 0
-0.223881 0.5 0
-0.22394 0.469753 0
-0.283582 0.5 0
-0.283647 0.470019 0
-0.253731 0.5 0
-0.253798 0.469819 0
-0.313433 0.5 0
-0.313491 0.470151 0
-0.283582 0.5 0
-0.283647 0.470019 0
-0.343284 0.5 0
-0.343348 0.470381 0
-0.313433 0.5 0
-0.313491 0.470151 0
-0.343284 0.5 0
-0.373134 0.5 0
-0.343348 0.470381 0
-0.373195 0.470395 0
-0.373134 0.5 0
-0.402985 0.5 0
-0.373195 0.470395 0
-0.403049 0.470404 0
-0.432836 0.5 0
-0.432937 0.470297 0
-0.402985 0.5 0
-0.403049 0.470404 0
-0.462687 0.5 0
-0.462848 0.469995 0
-0.432836 0.5 0
-0.432937 0.470297 0
-0.492537 0.5 0
-0.492807 0.469765 0
-0.462687 0.5 0
-0.462848 0.469995 0
-0.522388 0.5 0
-0.52276 0.46958 0
-0.492537 0.5 0
-0.492807 0.469765 0
-0.552239 0.5 0
-0.55273 0.469652 0
-0.522388 0.5 0
-0.52276 0.46958 0
-0.58209 0.5 0
-0.582662 0.469731 0
-0.552239 0.5 0
-0.55273 0.469652 0
-0.61194 0.5 0
-0.612594 0.469999 0
-0.58209 0.5 0
-0.582662 0.469731 0
-0.641791 0.5 0
-0.642647 0.470419 0
-0.61194 0.5 0
-0.612594 0.469999 0
-0.671642 0.5 0
-0.672638 0.470543 0
-0.641791 0.5 0
-0.642647 0.470419 0
-0.701493 0.5 0
-0.702968 0.4698 0
-0.671642 0.5 0
-0.672638 0.470543 0
-0.701493 0.5 0
-0.731343 0.5 0
-0.702968 0.4698 0
-0.733232 0.468149 0
-0.731343 0.5 0
-0.761194 0.5 0
-0.733232 0.468149 0
-0.765399 0.466448 0
-0.791045 0.5 0
-0.795702 0.469563 0
-0.761194 0.5 0
-0.765399 0.466448 0
-0.820896 0.5 0
-0.822797 0.47207 0
-0.791045 0.5 0
-0.795702 0.469563 0
0.31 -0.5 0
0.309694 -0.471123 0
0.28 -0.5 0
0.279811 -0.471266 0
0.31 -0.5 0
0.34 -0.5 0
0.309694 -0.471123 0
0.339686 -0.471033 0
0.37 -0.5 0
0.369721 -0.471055 0
0.34 -0.5 0
0.339686 -0.471033 0
0.37 -0.5 0
0.4 -0.5 0
0.369721 -0.471055 0
0.399756 -0.470957 0
0.4 -0.5 0
0.43 -0.5 0
0.399756 -0.470957 0
0.429805 -0.470822 0
0.43 -0.5 0
0.46 -0.5 0
0.429805 -0.470822 0
0.459835 -0.470712 0
0.46 -0.5 0
0.49 -0.5 0
0.459835 -0.470712 0
0.489873 -0.470554 0
0.49 -0.5 0
0.52 -0.5 0
0.489873 -0.470554 0
0.519906 -0.470379 0
0.52 -0.5 0
0.55 -0.5 0
0.519906 -0.470379 0
0.54993 -0.470248 0
0.55 -0.5 0
0.58 -0.5 0
0.54993 -0.470248 0
0.579948 -0.470155 0
0.58 -0.5 0
0.61 -0.5 0
0.579948 -0.470155 0
0.609962 -0.470091 0
0.61 -0.5 0
0.64 -0.5 0
0.609962 -0.470091 0
0.639972 -0.47005 0
0.64 -0.5 0
0.67 -0.5 0
0.639972 -0.47005 0
0.66998 -0.470026 0
0.67 -0.5 0
0.7 -0.5 0
0.66998 -0.470026 0
0.699986 -0.470013 0
0.7 -0.5 0
0.73 -0.5 0
0.699986 -0.470013 0
0.72999 -0.470006 0
0.73 -0.5 0
0.76 -0.5 0
0.72999 -0.470006 0
0.759994 -0.470003 0
0.76 -0.5 0
0.79 -0.5 0
0.759994 -0.470003 0
0.78998 -0.469916 0
0.79 -0.5 0
0.82 -0.5 0
0.78998 -0.469916 0
0.819956 -0.469877 0
0.82 -0.5 0
0.85 -0.5 0
0.819956 -0.469877 0
0.849929 -0.469833 0
0.85 -0.5 0
0.88 -0.5 0
0.849929 -0.469833 0
0.879924 -0.469805 0
0.88 -0.5 0
0.91 -0.5 0
0.879924 -0.469805 0
0.909913 -0.469792 0
0.91 -0.5 0
0.94 -0.5 0
0.909913 -0.469792 0
0.939922 -0.469775 0
0.94 -0.5 0
0.97 -0.5 0
0.939922 -0.469775 0
0.969956 -0.46974 0
0.97 -0.5 0
1 -0.5 0
0.969956 -0.46974 0
1 -0.469697 0
-0.510638 0.010638 0
-0.489362 -0.010638 0
-0.489127 0.032461 0
-0.467791 0.011178 0
-0.489362 -0.010638 0
-0.468085 -0.031915 0
-0.467791 0.011178 0
-0.446536 -0.010172 0
-0.446809 -0.053191 0
-0.42524 -0.031466 0
-0.468085 -0.031915 0
-0.446536 -0.010172 0
-0.425532 -0.074468 0
-0.404012 -0.052824 0
-0.446809 -0.053191 0
-0.42524 -0.031466 0
-0.425532 -0.074468 0
-0.404255 -0.095745 0
-0.404012 -0.052824 0
-0.382783 -0.074175 0
-0.404255 -0.095745 0
-0.382979 -0.117021 0
-0.382783 -0.074175 0
-0.361545 -0.095511 0
-0.382979 -0.117021 0
-0.361702 -0.138298 0
-0.361545 -0.095511 0
-0.340288 -0.116831 0
-0.361702 -0.138298 0
-0.340426 -0.159574 0
-0.340288 -0.116831 0
-0.319034 -0.138159 0
-0.340426 -0.159574 0
-0.319149 -0.180851 0
-0.319034 -0.138159 0
-0.297766 -0.159484 0
-0.319149 -0.180851 0
-0.297872 -0.202128 0
-0.297766 -0.159484 0
-0.276489 -0.180797 0
-0.297872 -0.202128 0
-0.276596 -0.223404 0
-0.276489 -0.180797 0
-0.255087 -0.202105 0
-0.255319 -0.244681 0
-0.233674 -0.223466 0
-0.276596 -0.223404 0
-0.255087 -0.202105 0
-0.234043 -0.265957 0
-0.212119 -0.244916 0
-0.255319 -0.244681 0
-0.233674 -0.223466 0
-0.234043 -0.265957 0
-0.212766 -0.287234 0
-0.212119 -0.244916 0
-0.190657 -0.266392 0
-0.191489 -0.308511 0
-0.169261 -0.287934 0
-0.212766 -0.287234 0
-0.190657 -0.266392 0
-0.170213 -0.329787 0
-0.147854 -0.309624 0
-0.191489 -0.308511 0
-0.169261 -0.287934 0
-0.170213 -0.329787 0
-0.148936 -0.351064 0
-0.147854 -0.309624 0
-0.126431 -0.331364 0
-0.12766 -0.37234 0
-0.105256 -0.353368 0
-0.148936 -0.351064 0
-0.126431 -0.331364 0
-0.12766 -0.37234 0
-0.106383 -0.393617 0
-0.105256 -0.353368 0
-0.083924 -0.375263 0
-0.106383 -0.393617 0
-0.085106 -0.414894 0
-0.083924 -0.375263 0
-0.062097 -0.396824 0
-0.085106 -0.414894 0
-0.06383 -0.43617 0
-0.062097 -0.396824 0
-0.040132 -0.418076 0
-0.06383 -0.43617 0
-0.042553 -0.457447 0
-0.040132 -0.418076 0
-0.019646 -0.439891 0
-0.042553 -0.457447 0
-0.021277 -0.478723 0
-0.019646 -0.439891 0
-0.002475 -0.461393 0
-0.021277 -0.478723 0
0 -0.5 0
-0.002475 -0.461393 0
0.009599 -0.478226 0
0 -0.5 0
0.03 -0.5 0
0.009599 -0.478226 0
0.029922 -0.474701 0
0.03 -0.5 0
0.06 -0.5 0
0.029922 -0.474701 0
0.057397 -0.471689 0
0.06 -0.5 0
0.09 -0.5 0
0.057397 -0.471689 0
0.08796 -0.470463 0
0.09 -0.5 0
0.12 -0.5 0
0.08796 -0.470463 0
0.119014 -0.4708 0
0.969956 -0.46974 0
1 -0.469697 0
0.969923 -0.439465 0
1 -0.439394 0
0.969923 -0.439465 0
1 -0.439394 0
0.969894 -0.409159 0
1 -0.409091 0
0.969894 -0.409159 0
1 -0.409091 0
0.969889 -0.37886 0
1 -0.378788 0
0.969889 -0.37886 0
1 -0.378788 0
[...]
POINT_DATA 7552
VECTORS momentum double
0.00140556 -0.000384814 0
0.000122733 -0.000352517 0
0.00161036 -0.00165606 0
0.00012344 -0.00160995 0
0.00153676 -0.00188418 0
0.00161036 -0.00165606 0
0.000121106 -0.00166058 0
0.00012344 -0.00160995 0
0.00203057 -0.00276865 0
0.00153676 -0.00188418 0
0.00012219 -0.00286969 0
0.000121106 -0.00166058 0
0.00226526 -0.00248393 0
0.00203057 -0.00276865 0
-5.17615e-05 -0.00214153 0
0.00012219 -0.00286969 0
0.00292501 -0.00246882 0
0.00226526 -0.00248393 0
0.000376428 -0.00274132 0
-5.17615e-05 -0.00214153 0
0.00348118 -0.000951367 0
0.00292501 -0.00246882 0
-0.00123684 -4.26803e-06 0
0.000376428 -0.00274132 0
0.00696913 0.000624937 0
0.00348118 -0.000951367 0
0.00513743 0.00141238 0
-0.00123684 -4.26803e-06 0
0.0101724 -0.00113216 0
0.00696913 0.000624937 0
0.0118227 -0.000634762 0
0.00513743 0.00141238 0
0.00966766 -0.00414054 0
0.0118227 -0.000634762 0
0.0101522 -0.00206286 0
0.00513743 0.00141238 0
0.00943196 -0.000593142 0
0.00966766 -0.00414054 0
0.00955821 0.00129959 0
0.0101522 -0.00206286 0
0.011342 -0.0044253 0
0.00943196 -0.000593142 0
0.0050417 -0.00408417 0
0.00955821 0.00129959 0
0.00723462 -0.00529491 0
0.011342 -0.0044253 0
0.00406595 -0.00839039 0
0.0050417 -0.00408417 0
8.37565e-05 -0.00516901 0
0.00406595 -0.00839039 0
-0.00163191 -0.00629637 0
0.0050417 -0.00408417 0
0.000905423 -0.00410003 0
8.37565e-05 -0.00516901 0
0.000482094 -0.0029847 0
-0.00163191 -0.00629637 0
0.000107931 -0.00287145 0
0.000905423 -0.00410003 0
-0.000211267 -0.00357153 0
0.000482094 -0.0029847 0
0.000408593 -0.00233237 0
0.000107931 -0.00287145 0
0.000107085 -0.00196789 0
-0.000211267 -0.00357153 0
5.28009e-05 -0.00154355 0
0.000408593 -0.00233237 0
-5.5354e-05 -0.00178659 0
0.000107085 -0.00196789 0
0.000187763 -0.00124116 0
5.28009e-05 -0.00154355 0
3.47303e-05 -0.00112276 0
-5.5354e-05 -0.00178659 0
8.33802e-05 -0.000486584 0
0.000187763 -0.00124116 0
-1.89563e-05 -0.000571434 0
3.47303e-05 -0.00112276 0
-0.000261912 -0.00064949 0
-0.000254064 -0.00177866 0
-0.00024525 -0.000649692 0
-0.000234598 -0.00177988 0
-0.000277817 -0.000650012 0
-0.000273116 -0.0017798 0
-0.000261912 -0.00064949 0
-0.000254064 -0.00177866 0
-0.00028831 -0.000649637 0
-0.000283409 -0.00178187 0
-0.000277817 -0.000650012 0
-0.000273116 -0.0017798 0
-0.000297238 -0.00064877 0
-0.000293173 -0.00178316 0
-0.00028831 -0.000649637 0
-0.000283409 -0.00178187 0
-0.000300852 -0.000648052 0
-0.000296295 -0.00178462 0
-0.000297238 -0.00064877 0
-0.000293173 -0.00178316 0
-0.000302004 -0.00064662 0
-0.000297397 -0.00178553 0
-0.000300852 -0.000648052 0
-0.000296295 -0.00178462 0
-0.000296702 -0.000645841 0
-0.000292876 -0.00178663 0
-0.000302004 -0.00064662 0
-0.000297397 -0.00178553 0
-0.000287879 -0.000644239 0
-0.000284219 -0.00178834 0
-0.000296702 -0.000645841 0
-0.000292876 -0.00178663 0
-0.000270992 -0.000642946 0
-0.000270546 -0.00179002 0
-0.000287879 -0.000644239 0
-0.000284219 -0.00178834 0
-0.000248487 -0.000642066 0
-0.000250072 -0.00179179 0
-0.000270992 -0.000642946 0
-0.000270546 -0.00179002 0
-0.000216311 -0.000640684 0
-0.000222113 -0.00179262 0
-0.000248487 -0.000642066 0
-0.000250072 -0.00179179 0
-0.000174814 -0.000639785 0
-0.000189153 -0.0017934 0
-0.000216311 -0.000640684 0
-0.000222113 -0.00179262 0
-0.000174814 -0.000639785 0
-0.000125916 -0.00064009 0
-0.000189153 -0.0017934 0
-0.000144332 -0.00179345 0
-6.42144e-05 -0.000640125 0
-8.8363e-05 -0.00179312 0
-0.000125916 -0.00064009 0
-0.000144332 -0.00179345 0
1.06098e-05 -0.000642391 0
-1.54637e-05 -0.00178928 0
-6.42144e-05 -0.000640125 0
-8.8363e-05 -0.00179312 0
0.000100579 -0.00064446 0
8.46351e-05 -0.0017794 0
1.06098e-05 -0.000642391 0
-1.54637e-05 -0.00178928 0
0.000220487 -0.000645013 0
0.00021245 -0.00176194 0
0.000100579 -0.00064446 0
8.46351e-05 -0.0017794 0
0.000368584 -0.000646127 0
0.000374343 -0.00173865 0
0.000220487 -0.000645013 0
0.00021245 -0.00176194 0
0.000555739 -0.000645773 0
0.000579754 -0.0017106 0
0.000368584 -0.000646127 0
0.000374343 -0.00173865 0
0.000802465 -0.000643848 0
0.000840884 -0.00167837 0
0.000555739 -0.000645773 0
0.000579754 -0.0017106 0
0.00112356 -0.000641043 0
0.00116922 -0.00164466 0
0.000802465 -0.000643848 0
0.000840884 -0.00167837 0
0.00152955 -0.000639938 0
0.00158218 -0.00160463 0
0.00112356 -0.000641043 0
0.00116922 -0.00164466 0
0.00202283 -0.000638535 0
0.00209013 -0.00156215 0
0.00152955 -0.000639938 0
0.00158218 -0.00160463 0
0.0026131 -0.000637563 0
0.00269033 -0.00150924 0
0.00202283 -0.000638535 0
0.00209013 -0.00156215 0
0.00329562 -0.000637447 0
0.00338352 -0.00144511 0
0.0026131 -0.000637563 0
0.00269033 -0.00150924 0
0.00404593 -0.000639497 0
0.00415442 -0.0013713 0
0.00329562 -0.000637447 0
0.00338352 -0.00144511 0
0.00485043 -0.000641924 0
0.00498934 -0.00129185 0
0.00404593 -0.000639497 0
0.00415442 -0.0013713 0
0.00568036 -0.000639463 0
0.00584865 -0.00121087 0
0.00485043 -0.000641924 0
0.00498934 -0.00129185 0
0.00649935 -0.000635146 0
0.0066902 -0.00112551 0
0.00568036 -0.000639463 0
0.00584865 -0.00121087 0
0.00723591 -0.000629402 0
0.0074465 -0.00103393 0
0.00649935 -0.000635146 0
0.0066902 -0.00112551 0
0.00783609 -0.000622556 0
0.00806111 -0.000933666 0
0.00723591 -0.000629402 0
0.0074465 -0.00103393 0
0.00820001 -0.00061571 0
0.00843028 -0.000820239 0
0.00783609 -0.000622556 0
0.00806111 -0.000933666 0
0.00826947 -0.000611447 0
0.00849948 -0.000683998 0
0.00820001 -0.00061571 0
0.00843028 -0.000820239 0
0.00791329 -0.000607275 0
0.00814399 -0.000521106 0
0.00826947 -0.000611447 0
0.00849948 -0.000683998 0
0.00709362 -0.000601637 0
0.00731548 -0.000312005 0
0.00791329 -0.000607275 0
0.00814399 -0.000521106 0
0.00564553 -0.000595182 0
0.00584647 -4.77172e-05 0
0.00709362 -0.000601637 0
0.00731548 -0.000312005 0
0.00354631 -0.000588069 0
0.00373083 0.000302591 0
0.00564553 -0.000595182 0
0.00584647 -4.77172e-05 0
0.000606005 -0.000579932 0
0.000768006 0.00073127 0
0.00354631 -0.000588069 0
0.00373083 0.000302591 0
-0.00313258 -0.000570667 0
-0.00300083 0.00126706 0
0.000606005 -0.000579932 0
0.000768006 0.00073127 0
-0.00313258 -0.000570667 0
-0.00792037 -0.000558192 0
-0.00300083 0.00126706 0
-0.00781926 0.00189951 0
-0.0136549 -0.000538419 0
-0.0135876 0.00264787 0
-0.00792037 -0.000558192 0
-0.00781926 0.00189951 0
-0.0206647 -0.000512899 0
-0.0206564 0.00351609 0
-0.0136549 -0.000538419 0
-0.0135876 0.00264787 0
-0.0288353 -0.000478497 0
-0.0289133 0.00452394 0
-0.0206647 -0.000512899 0
-0.0206564 0.00351609 0
-0.0386245 -0.000437714 0
-0.0388356 0.0056498 0
-0.0288353 -0.000478497 0
-0.0289133 0.00452394 0
-0.0498483 -0.000397387 0
-0.0502567 0.00691198 0
-0.0386245 -0.000437714 0
-0.0388356 0.0056498 0
-0.0498483 -0.000397387 0
-0.0630789 -0.000348412 0
-0.0502567 0.00691198 0
-0.0637665 0.00832883 0
-0.0630789 -0.000348412 0
-0.0780813 -0.000317442 0
-0.0637665 0.00832883 0
-0.0790788 0.00988597 0
-0.0953899 -0.000260456 0
-0.0967935 0.0114855 0
-0.0780813 -0.000317442 0
-0.0790788 0.00988597 0
-0.114673 -0.000240797 0
-0.116451 0.0132678 0
-0.0953899 -0.000260456 0
-0.0967935 0.0114855 0
-0.136143 -0.000160468 0
-0.138521 0.0147777 0
-0.114673 -0.000240797 0
-0.116451 0.0132678 0
-0.159124 -0.000192714 0
-0.16206 0.0160131 0
-0.136143 -0.000160468 0
-0.138521 0.0147777 0
-0.183046 -0.00013204 0
-0.186618 0.0164448 0
-0.159124 -0.000192714 0
-0.16206 0.0160131 0
-0.207136 -0.000202806 0
-0.211013 0.0168825 0
-0.183046 -0.00013204 0
-0.186618 0.0164448 0
-0.230525 -0.000132762 0
-0.234771 0.0172913 0
-0.207136 -0.000202806 0
-0.211013 0.0168825 0
-0.253393 -0.000399228 0
-0.257683 0.0188776 0
-0.230525 -0.000132762 0
-0.234771 0.0172913 0
-0.274985 -5.30774e-05 0
-0.277767 0.020444 0
-0.253393 -0.000399228 0
-0.257683 0.0188776 0
-0.294699 0.000232918 0
-0.298536 0.0246595 0
-0.274985 -5.30774e-05 0
-0.277767 0.020444 0
-0.294699 0.000232918 0
-0.314207 0.00079789 0
-0.298536 0.0246595 0
-0.313045 0.0266599 0
-0.314207 0.00079789 0
-0.322823 5.32814e-05 0
-0.313045 0.0266599 0
-0.329154 0.0201871 0
-0.317809 -0.00070566 0
-0.323883 -0.00120892 0
-0.322823 5.32814e-05 0
-0.329154 0.0201871 0
-0.294273 -0.000241056 0
-0.289616 -0.0159849 0
-0.317809 -0.00070566 0
-0.323883 -0.00120892 0
0.000205525 -0.000463409 0
0.000263268 -0.0012328 0
8.33802e-05 -0.000486584 0
0.000187763 -0.00124116 0
0.000205525 -0.000463409 0
0.000264861 -0.000425982 0
0.000263268 -0.0012328 0
0.000312631 -0.00123339 0
0.000297279 -0.000429027 0
0.000318543 -0.00116942 0
0.000264861 -0.000425982 0
0.000312631 -0.00123339 0
0.000297279 -0.000429027 0
0.000279492 -0.000416394 0
0.000318543 -0.00116942 0
0.000298354 -0.00113654 0
0.000279492 -0.000416394 0
0.000245117 -0.000422595 0
0.000298354 -0.00113654 0
0.000249517 -0.00108568 0
0.000245117 -0.000422595 0
0.000178698 -0.000417574 0
0.000249517 -0.00108568 0
0.000187502 -0.00106179 0
0.000178698 -0.000417574 0
0.000113914 -0.000420172 0
0.000187502 -0.00106179 0
0.00011206 -0.00103326 0
0.000113914 -0.000420172 0
3.65627e-05 -0.000419259 0
0.00011206 -0.00103326 0
3.25265e-05 -0.00102059 0
3.65627e-05 -0.000419259 0
-3.51866e-05 -0.000422599 0
3.25265e-05 -0.00102059 0
-4.10401e-05 -0.00100511 0
-3.51866e-05 -0.000422599 0
-0.000108604 -0.000422983 0
-4.10401e-05 -0.00100511 0
-0.000110908 -0.000999408 0
-0.000108604 -0.000422983 0
-0.000169526 -0.00042464 0
-0.000110908 -0.000999408 0
-0.000171177 -0.00099223 0
-0.000169526 -0.00042464 0
-0.000226516 -0.000425039 0
-0.000171177 -0.00099223 0
-0.000225609 -0.000990343 0
-0.000226516 -0.000425039 0
-0.000270817 -0.000425649 0
-0.000225609 -0.000990343 0
-0.000268284 -0.000987622 0
-0.000270817 -0.000425649 0
-0.000309791 -0.000425662 0
-0.000268284 -0.000987622 0
-0.000305709 -0.000987943 0
-0.000309791 -0.000425662 0
-0.00033673 -0.000425935 0
-0.000305709 -0.000987943 0
-0.000332953 -0.000988083 0
-0.00033673 -0.000425935 0
-0.000357239 -0.000425995 0
-0.000332953 -0.000988083 0
-0.000356757 -0.000990383 0
-0.000357239 -0.000425995 0
-0.000370456 -0.00042681 0
-0.000356757 -0.000990383 0
-0.00037194 -0.000992038 0
-0.000370456 -0.00042681 0
-0.000381565 -0.000427662 0
-0.00037194 -0.000992038 0
-0.000382359 -0.000995108 0
-0.000381565 -0.000427662 0
-0.000385683 -0.000428683 0
-0.000382359 -0.000995108 0
-0.000385648 -0.000998267 0
-0.000385683 -0.000428683 0
-0.000388726 -0.000429463 0
-0.000385648 -0.000998267 0
-0.000387101 -0.00100196 0
-0.000388726 -0.000429463 0
-0.000384677 -0.000429828 0
-0.000387101 -0.00100196 0
-0.000382694 -0.00100565 0
-0.000384677 -0.000429828 0
-0.00037894 -0.000430344 0
-0.000382694 -0.00100565 0
-0.000377141 -0.00100895 0
-0.00037894 -0.000430344 0
-0.000367531 -0.000430426 0
-0.000377141 -0.00100895 0
-0.000366202 -0.00101126 0
-0.000367531 -0.000430426 0
-0.000357404 -0.000430378 0
-0.000366202 -0.00101126 0
-0.000357027 -0.00101238 0
0.30352 -0.293949 0
0.179518 -0.172688 0
0.313582 -0.114701 0
0.203925 -0.102694 0
0.179518 -0.172688 0
0.126055 -0.124763 0
0.203925 -0.102694 0
0.144058 -0.0894386 0
0.0964714 -0.0960053 0
0.108349 -0.0744362 0
0.126055 -0.124763 0
0.144058 -0.0894386 0
0.0773832 -0.0772386 0
0.0852275 -0.0631273 0
0.0964714 -0.0960053 0
0.108349 -0.0744362 0
0.0773832 -0.0772386 0
0.0640232 -0.0641225 0
0.0852275 -0.0631273 0
0.0694161 -0.0540556 0
0.0640232 -0.0641225 0
0.0543068 -0.0544852 0
0.0694161 -0.0540556 0
0.0580424 -0.0471202 0
0.0543068 -0.0544852 0
0.0469759 -0.0472443 0
0.0580424 -0.0471202 0
0.0496307 -0.0415752 0
0.0469759 -0.0472443 0
0.0413214 -0.0416253 0
0.0496307 -0.0415752 0
0.0432043 -0.0371726 0
0.0413214 -0.0416253 0
0.0368472 -0.037189 0
0.0432043 -0.0371726 0
0.0381903 -0.0335545 0
0.0368472 -0.037189 0
0.0332305 -0.0335894 0
0.0381903 -0.0335545 0
0.0341787 -0.0305757 0
0.0332305 -0.0335894 0
0.0302201 -0.0305978 0
0.0341787 -0.0305757 0
0.0308677 -0.0280323 0
0.027664 -0.0280433 0
0.0280839 -0.0258374 0
0.0302201 -0.0305978 0
0.0308677 -0.0280323 0
0.0253901 -0.0257733 0
0.0256039 -0.023845 0
0.027664 -0.0280433 0
0.0280839 -0.0258374 0
0.0253901 -0.0257733 0
0.0233469 -0.023739 0
0.0256039 -0.023845 0
0.0233972 -0.0220146 0
0.021386 -0.0218003 0
0.0213077 -0.020243 0
0.0233469 -0.023739 0
0.0233972 -0.0220146 0
0.0195296 -0.0199737 0
0.0193822 -0.0185425 0
0.021386 -0.0218003 0
0.0213077 -0.020243 0
0.0195296 -0.0199737 0
0.0176396 -0.0180976 0
0.0193822 -0.0185425 0
0.0174137 -0.0168191 0
0.0158507 -0.0163081 0
0.0155062 -0.0151632 0
0.0176396 -0.0180976 0
0.0174137 -0.0168191 0
0.0158507 -0.0163081 0
0.0139947 -0.0144626 0
0.0155062 -0.0151632 0
0.0135342 -0.0133554 0
0.0139947 -0.0144626 0
0.0121605 -0.0126345 0
0.0135342 -0.0133554 0
0.0116928 -0.0116179 0
0.0121605 -0.0126345 0
0.0101656 -0.0106311 0
0.0116928 -0.0116179 0
0.00975726 -0.00949542 0
0.0101656 -0.0106311 0
0.00791427 -0.00827374 0
0.00975726 -0.00949542 0
0.00806484 -0.00766643 0
0.00791427 -0.00827374 0
0.00544218 -0.00581935 0
0.00806484 -0.00766643 0
0.00612908 -0.00494594 0
0.00544218 -0.00581935 0
0.00241146 -0.00145398 0
0.00612908 -0.00494594 0
0.00496857 -0.00357045 0
0.00241146 -0.00145398 0
0.00487331 -0.000245244 0
0.00496857 -0.00357045 0
0.0050839 -0.0027128 0
0.00487331 -0.000245244 0
0.00419506 -0.000434342 0
0.0050839 -0.0027128 0
0.00407367 -0.002091 0
0.00419506 -0.000434342 0
0.00322221 -0.000477968 0
0.00407367 -0.002091 0
0.00326474 -0.00176937 0
0.00322221 -0.000477968 0
0.00140556 -0.000384814 0
0.00326474 -0.00176937 0
0.00161036 -0.00165606 0
-0.000366202 -0.00101126 0
-0.000357027 -0.00101238 0
-0.000365863 -0.000760736 0
-0.000358073 -0.000764628 0
-0.000365863 -0.000760736 0
-0.000358073 -0.000764628 0
-0.000369843 -0.00123054 0
-0.000363425 -0.00123395 0
-0.000369843 -0.00123054 0
-0.000363425 -0.00123395 0
-0.000377725 -0.00107137 0
-0.000371696 -0.0010762 0
-0.000377725 -0.00107137 0
-0.000371696 -0.0010762 0
-0.000387516 -0.00144649 0
-0.000384321 -0.00145235 0
-0.000387516 -0.00144649 0
-0.000384321 -0.00145235 0
-0.000400944 -0.00134884 0
-0.000397874 -0.00135499 0
-0.000400944 -0.00134884 0
-0.000397874 -0.00135499 0
-0.000414556 -0.00164313 0
-0.000413384 -0.00165025 0
-0.000431978 -0.00158723 0
-0.000414556 -0.00164313 0
-0.000430857 -0.0015949 0
-0.000413384 -0.00165025 0
-0.000431978 -0.00158723 0
-0.000430857 -0.0015949 0
-0.000451126 -0.00181356 0
-0.000450695 -0.00182197 0
-0.000451126 -0.00181356 0
-0.000450695 -0.00182197 0
-0.000474499 -0.0017866 0
-0.000474227 -0.00179647 0
-0.000474499 -0.0017866 0
-0.000474227 -0.00179647 0
-0.000502325 -0.00195536 0
-0.000503003 -0.00196642 0
-0.000502325 -0.00195536 0
-0.000503003 -0.00196642 0
-0.00053567 -0.00194817 0
-0.000537908 -0.0019616 0
-0.00053567 -0.00194817 0
-0.000537908 -0.0019616 0
-0.000576503 -0.00206398 0
-0.000583603 -0.00207972 0
-0.000576503 -0.00206398 0
-0.000583603 -0.00207972 0
-0.000623997 -0.00206558 0
-0.000638442 -0.00208381 0
-0.000623997 -0.00206558 0
-0.000638442 -0.00208381 0
-0.000678758 -0.00212327 0
-0.000705916 -0.00214392 0
-0.000678758 -0.00212327 0
-0.000705916 -0.00214392 0
-0.000735544 -0.00211805 0
-0.000779948 -0.00213927 0
-0.000735544 -0.00211805 0
-0.000779948 -0.00213927 0
-0.000788597 -0.00210406 0
-0.000854106 -0.00212359 0
-0.000788597 -0.00210406 0
-0.000854106 -0.00212359 0
-0.000825417 -0.00207997 0
-0.000911642 -0.00209316 0
-0.000825417 -0.00207997 0
-0.000911642 -0.00209316 0
-0.000835091 -0.00198984 0
-0.000934429 -0.0019927 0
-0.000835091 -0.00198984 0
-0.000934429 -0.0019927 0
-0.000809619 -0.00196638 0
-0.000907059 -0.00195631 0
-0.000809619 -0.00196638 0
-0.000907059 -0.00195631 0
-0.000751667 -0.0018282 0
-0.000832636 -0.00180964 0
-0.000751667 -0.0018282 0
-0.000832636 -0.00180964 0
-0.000673322 -0.00185619 0
-0.000731219 -0.00183304 0
-0.000673322 -0.00185619 0
-0.000731219 -0.00183304 0
-0.000587145 -0.00169219 0
-0.000622082 -0.00167042 0
-0.000587145 -0.00169219 0
-0.000622082 -0.00167042 0
-0.000508862 -0.001801 0
-0.000524468 -0.00178155 0
-0.000508862 -0.001801 0
-0.000524468 -0.00178155 0
-0.000436821 -0.00158786 0
-0.00043868 -0.00157478 0
-0.000436821 -0.00158786 0
-0.00043868 -0.00157478 0
-0.000387055 -0.00178401 0
-0.00038196 -0.00177285 0
-0.000387055 -0.00178401 0
-0.00038196 -0.00177285 0
-0.000337168 -0.00147204 0
-0.000325566 -0.00146384 0
-0.000337168 -0.00147204 0
-0.000325566 -0.00146384 0
-0.000303767 -0.00178339 0
-0.000290858 -0.00177707 0
-0.000303767 -0.00178339 0
-0.000290858 -0.00177707 0
-0.000268399 -0.00130329 0
-0.000251325 -0.00130024 0
-0.000268399 -0.00130329 0
-0.000251325 -0.00130024 0
-0.000259136 -0.00178039 0
-0.000241757 -0.00178073 0
-0.000259136 -0.00178039 0
-0.000241757 -0.00178073 0
-0.000251789 -0.00103898 0
-0.00023378 -0.00103867 0
-0.000251789 -0.00103898 0
-0.00023378 -0.00103867 0
-0.000254064 -0.00177866 0
-0.000234598 -0.00177988 0
0.313582 -0.114701 0
0.203925 -0.102694 0
0.24252 0.00605166 0
0.188419 -0.0326561 0
0.203925 -0.102694 0
0.144058 -0.0894386 0
0.188419 -0.0326561 0
0.14083 -0.0433628 0
0.108349 -0.0744362 0
0.10969 -0.0459687 0
0.144058 -0.0894386 0
0.14083 -0.0433628 0
0.0852275 -0.0631273 0
0.0870948 -0.0432319 0
0.108349 -0.0744362 0
0.10969 -0.0459687 0
0.0852275 -0.0631273 0
0.0694161 -0.0540556 0
0.0870948 -0.0432319 0
0.0714733 -0.0401954 0
0.0694161 -0.0540556 0
0.0580424 -0.0471202 0
0.0714733 -0.0401954 0
0.0597305 -0.0366296 0
0.0580424 -0.0471202 0
0.0496307 -0.0415752 0
0.0597305 -0.0366296 0
0.0510663 -0.0335634 0
0.0496307 -0.0415752 0
0.0432043 -0.0371726 0
0.0510663 -0.0335634 0
0.0443403 -0.0307048 0
0.0432043 -0.0371726 0
0.0381903 -0.0335545 0
0.0443403 -0.0307048 0
0.0391139 -0.0282563 0
0.0381903 -0.0335545 0
0.0341787 -0.0305757 0
0.0391139 -0.0282563 0
0.0348774 -0.0260902 0
0.0341787 -0.0305757 0
0.0308677 -0.0280323 0
0.0348774 -0.0260902 0
0.0314136 -0.0241891 0
0.0280839 -0.0258374 0
0.0284878 -0.0224364 0
0.0308677 -0.0280323 0
0.0314136 -0.0241891 0
0.0256039 -0.023845 0
0.0259435 -0.0208127 0
0.0280839 -0.0258374 0
0.0284878 -0.0224364 0
0.0256039 -0.023845 0
0.0233972 -0.0220146 0
0.0259435 -0.0208127 0
0.0236564 -0.0192572 0
0.0213077 -0.020243 0
0.0214459 -0.0177965 0
0.0233972 -0.0220146 0
0.0236564 -0.0192572 0
0.0193822 -0.0185425 0
0.0194084 -0.0163178 0
0.0213077 -0.020243 0
0.0214459 -0.0177965 0
0.0193822 -0.0185425 0
0.0174137 -0.0168191 0
0.0194084 -0.0163178 0
0.0172992 -0.0147352 0
0.0155062 -0.0151632 0
0.0152945 -0.0131252 0
0.0174137 -0.0168191 0
0.0172992 -0.0147352 0
0.0155062 -0.0151632 0
0.0135342 -0.0133554 0
0.0152945 -0.0131252 0
0.0131506 -0.011586 0
0.0135342 -0.0133554 0
0.0116928 -0.0116179 0
0.0131506 -0.011586 0
0.011377 -0.00984195 0
0.0116928 -0.0116179 0
0.00975726 -0.00949542 0
0.011377 -0.00984195 0
0.00923077 -0.00800852 0
0.00975726 -0.00949542 0
0.00806484 -0.00766643 0
0.00923077 -0.00800852 0
0.00782407 -0.00605164 0
0.00617425 -0.00346913 0
0.0050839 -0.0027128 0
0.00487906 -0.00320738 0
0.00407367 -0.002091 0
0.00487906 -0.00320738 0
0.00407367 -0.002091 0
0.00359699 -0.00259515 0
0.00326474 -0.00176937 0
0.00359699 -0.00259515 0
0.00326474 -0.00176937 0
0.00153676 -0.00188418 0
0.00161036 -0.00165606 0
0.00421231 -0.0036346 0
0.00359699 -0.00259515 0
0.00203057 -0.00276865 0
0.00153676 -0.00188418 0
0.00467971 -0.00331076 0
0.00421231 -0.0036346 0
0.00226526 -0.00248393 0
0.00203057 -0.00276865 0
0.00542251 -0.0032956 0
0.00467971 -0.00331076 0
0.00292501 -0.00246882 0
0.00226526 -0.00248393 0
0.0066925 -0.00263267 0
0.00542251 -0.0032956 0
0.00348118 -0.000951367 0
0.00292501 -0.00246882 0
0.00868877 -0.00256885 0
0.0066925 -0.00263267 0
0.00696913 0.000624937 0
0.00348118 -0.000951367 0
0.0106277 -0.00313173 0
0.00868877 -0.00256885 0
0.0101724 -0.00113216 0
0.00696913 0.000624937 0
0.0106277 -0.00313173 0
0.0101724 -0.00113216 0
0.0121161 -0.00398752 0
0.0112902 -0.00324912 0
0.0101724 -0.00113216 0
0.0118227 -0.000634762 0
0.0112902 -0.00324912 0
0.0113819 -0.00279056 0
0.00966766 -0.00414054 0
0.0102862 -0.00233836 0
0.0118227 -0.000634762 0
0.0113819 -0.00279056 0
0.00943196 -0.000593142 0
0.00918857 -0.002786 0
0.00966766 -0.00414054 0