# vtk DataFile Version 3.0
#This file was generated by the deal.II library on 2016/12/20 at 10:56:39
ASCII
DATASET UNSTRUCTURED_GRID

POINTS 7216 double
-1 0.5 0
-0.978723 0.478723 0
-0.970149 0.5 0
-0.964976 0.485465 0
-0.970149 0.5 0
-0.964976 0.485465 0
-0.940299 0.5 0
-0.945882 0.477585 0
0.12 -0.5 0
0.15 -0.5 0
0.119014 -0.4708 0
0.15 -0.471429 0
0.11755 -0.441479 0
0.119014 -0.4708 0
0.15 -0.442857 0
0.15 -0.471429 0
0.117242 -0.412206 0
0.11755 -0.441479 0
0.15 -0.414286 0
0.15 -0.442857 0
0.118129 -0.383064 0
0.117242 -0.412206 0
0.15 -0.385714 0
0.15 -0.414286 0
0.12021 -0.354337 0
0.118129 -0.383064 0
0.15 -0.357143 0
0.15 -0.385714 0
0.121793 -0.32584 0
0.12021 -0.354337 0
0.15 -0.328571 0
0.15 -0.357143 0
0.122717 -0.296869 0
0.121793 -0.32584 0
0.15 -0.3 0
0.15 -0.328571 0
0.123759 -0.266752 0
0.122717 -0.296869 0
0.153091 -0.267708 0
0.15 -0.3 0
0.18456 -0.26795 0
0.153091 -0.267708 0
0.183333 -0.3 0
0.15 -0.3 0
0.216606 -0.268111 0
0.18456 -0.26795 0
0.216667 -0.3 0
0.183333 -0.3 0
0.24835 -0.26841 0
0.216606 -0.268111 0
0.25 -0.3 0
0.216667 -0.3 0
0.278782 -0.268564 0
0.24835 -0.26841 0
0.279437 -0.298917 0
0.25 -0.3 0
0.279638 -0.328111 0
0.279437 -0.298917 0
0.25 -0.328571 0
0.25 -0.3 0
0.27971 -0.356801 0
0.279638 -0.328111 0
0.25 -0.357143 0
0.25 -0.328571 0
0.279677 -0.385395 0
0.27971 -0.356801 0
0.25 -0.385714 0
0.25 -0.357143 0
0.279641 -0.413938 0
0.279677 -0.385395 0
0.25 -0.414286 0
0.25 -0.385714 0
0.279666 -0.442534 0
0.279641 -0.413938 0
0.25 -0.442857 0
0.25 -0.414286 0
0.279811 -0.471266 0
0.279666 -0.442534 0
0.25 -0.471429 0
0.25 -0.442857 0
0.28 -0.5 0
0.279811 -0.471266 0
0.25 -0.5 0
0.25 -0.471429 0
0.970149 0.5 0
0.970096 0.46978 0
1 0.5 0
1 0.469697 0
0.940299 0.5 0
0.940231 0.46984 0
0.970149 0.5 0
0.970096 0.46978 0
0.910448 0.5 0
0.910371 0.469856 0
0.940299 0.5 0
0.940231 0.46984 0
0.880597 0.5 0
0.880527 0.469909 0
0.910448 0.5 0
0.910371 0.469856 0
0.850746 0.5 0
0.850684 0.469926 0
0.880597 0.5 0
0.880527 0.469909 0
0.820896 0.5 0
0.820842 0.469978 0
0.850746 0.5 0
0.850684 0.469926 0
0.791045 0.5 0
0.791001 0.470016 0
0.820896 0.5 0
0.820842 0.469978 0
0.761194 0.5 0
0.761159 0.470055 0
0.791045 0.5 0
0.791001 0.470016 0
0.731343 0.5 0
0.731316 0.470091 0
0.761194 0.5 0
0.761159 0.470055 0
0.701493 0.5 0
0.701472 0.470118 0
0.731343 0.5 0
0.731316 0.470091 0
0.671642 0.5 0
0.671627 0.470134 0
0.701493 0.5 0
0.701472 0.470118 0
0.641791 0.5 0
0.64178 0.470142 0
0.671642 0.5 0
0.671627 0.470134 0
0.641791 0.5 0
0.61194 0.5 0
0.64178 0.470142 0
0.611934 0.470065 0
0.58209 0.5 0
0.582089 0.470002 0
0.61194 0.5 0
0.611934 0.470065 0
0.552239 0.5 0
0.552248 0.469853 0
0.58209 0.5 0
0.582089 0.470002 0
0.522388 0.5 0
0.522413 0.469718 0
0.552239 0.5 0
0.552248 0.469853 0
0.492537 0.5 0
0.492577 0.469656 0
0.522388 0.5 0
0.522413 0.469718 0
0.462687 0.5 0
0.462743 0.469571 0
0.492537 0.5 0
0.492577 0.469656 0
0.432836 0.5 0
0.432895 0.46963 0
0.462687 0.5 0
0.462743 0.469571 0
0.402985 0.5 0
0.403046 0.469669 0
0.432836 0.5 0
0.432895 0.46963 0
0.373134 0.5 0
0.373191 0.469745 0
0.402985 0.5 0
0.403046 0.469669 0
0.343284 0.5 0
0.343335 0.469723 0
0.373134 0.5 0
0.373191 0.469745 0
0.313433 0.5 0
0.313478 0.469741 0
0.343284 0.5 0
0.343335 0.469723 0
0.283582 0.5 0
0.283622 0.469783 0
0.313433 0.5 0
0.313478 0.469741 0
0.253731 0.5 0
0.253768 0.469742 0
0.283582 0.5 0
0.283622 0.469783 0
0.223881 0.5 0
0.223918 0.469737 0
0.253731 0.5 0
0.253768 0.469742 0
0.19403 0.5 0
0.194064 0.46981 0
0.223881 0.5 0
0.223918 0.469737 0
0.164179 0.5 0
0.16421 0.469881 0
0.19403 0.5 0
0.194064 0.46981 0
0.134328 0.5 0
0.134355 0.46994 0
0.164179 0.5 0
0.16421 0.469881 0
0.104478 0.5 0
0.1045 0.469997 0
0.134328 0.5 0
0.134355 0.46994 0
0.074627 0.5 0
0.074645 0.470051 0
0.104478 0.5 0
0.1045 0.469997 0
0.044776 0.5 0
0.04479 0.470093 0
0.074627 0.5 0
0.074645 0.470051 0
0.014925 0.5 0
0.014935 0.47012 0
0.044776 0.5 0
0.04479 0.470093 0
-0.014925 0.5 0
-0.014918 0.470135 0
0.014925 0.5 0
0.014935 0.47012 0
-0.044776 0.5 0
-0.044771 0.470143 0
-0.014925 0.5 0
-0.014918 0.470135 0
-0.074627 0.5 0
-0.074623 0.470146 0
-0.044776 0.5 0
-0.044771 0.470143 0
-0.104478 0.5 0
-0.104496 0.469979 0
-0.074627 0.5 0
-0.074623 0.470146 0
-0.134328 0.5 0
-0.134359 0.469935 0
-0.104478 0.5 0
-0.104496 0.469979 0
-0.164179 0.5 0
-0.164225 0.469839 0
-0.134328 0.5 0
-0.134359 0.469935 0
-0.164179 0.5 0
-0.19403 0.5 0
-0.164225 0.469839 0
-0.194083 0.469797 0
-0.223881 0.5 0
-0.22394 0.469753 0
-0.19403 0.5 0
-0.194083 0.469797 0
-0.253731 0.5 0
-0.253798 0.469819 0
-0.223881 0.5 0
-0.22394 0.469753 0
-0.283582 0.5 0
-0.283647 0.470019 0
-0.253731 0.5 0
-0.253798 0.469819 0
-0.313433 0.5 0
-0.313491 0.470151 0
-0.283582 0.5 0
-0.283647 0.470019 0
-0.343284 0.5 0
-0.343348 0.470381 0
-0.313433 0.5 0
-0.313491 0.470151 0
-0.343284 0.5 0
-0.373134 0.5 0
-0.343348 0.470381 0
-0.373195 0.470395 0
-0.373134 0.5 0
-0.402985 0.5 0
-0.373195 0.470395 0
-0.403049 0.470404 0
-0.432836 0.5 0
-0.432937 0.470297 0
-0.402985 0.5 0
-0.403049 0.470404 0
-0.462687 0.5 0
-0.462848 0.469995 0
-0.432836 0.5 0
-0.432937 0.470297 0
-0.492537 0.5 0
-0.492807 0.469765 0
-0.462687 0.5 0
-0.462848 0.469995 0
-0.522388 0.5 0
-0.52276 0.46958 0
-0.492537 0.5 0
-0.492807 0.469765 0
-0.552239 0.5 0
-0.55273 0.469652 0
-0.522388 0.5 0
-0.52276 0.46958 0
-0.58209 0.5 0
-0.582662 0.469731 0
-0.552239 0.5 0
-0.55273 0.469652 0
-0.61194 0.5 0
-0.612594 0.469999 0
-0.58209 0.5 0
-0.582662 0.469731 0
-0.641791 0.5 0
-0.642647 0.470419 0
-0.61194 0.5 0
-0.612594 0.469999 0
-0.671642 0.5 0
-0.672638 0.470543 0
-0.641791 0.5 0
-0.642647 0.470419 0
-0.701493 0.5 0
-0.702968 0.4698 0
-0.671642 0.5 0
-0.672638 0.470543 0
-0.820896 0.5 0
-0.822797 0.47207 0
-0.791045 0.5 0
-0.795702 0.469563 0
0.31 -0.5 0
0.309694 -0.471123 0
0.28 -0.5 0
0.279811 -0.471266 0
0.31 -0.5 0
0.34 -0.5 0
0.309694 -0.471123 0
0.339686 -0.471033 0
0.37 -0.5 0
0.369721 -0.471055 0
0.34 -0.5 0
0.339686 -0.471033 0
0.37 -0.5 0
0.4 -0.5 0
0.369721 -0.471055 0
0.399756 -0.470957 0
0.4 -0.5 0
0.43 -0.5 0
0.399756 -0.470957 0
0.429805 -0.470822 0
0.43 -0.5 0
0.46 -0.5 0
0.429805 -0.470822 0
0.459835 -0.470712 0
0.46 -0.5 0
0.49 -0.5 0
0.459835 -0.470712 0
0.489873 -0.470554 0
0.49 -0.5 0
0.52 -0.5 0
0.489873 -0.470554 0
0.519906 -0.470379 0
0.52 -0.5 0
0.55 -0.5 0
0.519906 -0.470379 0
0.54993 -0.470248 0
0.55 -0.5 0
0.58 -0.5 0
0.54993 -0.470248 0
0.579948 -0.470155 0
0.58 -0.5 0
0.61 -0.5 0
0.579948 -0.470155 0
0.609962 -0.470091 0
0.61 -0.5 0
0.64 -0.5 0
0.609962 -0.470091 0
0.639972 -0.47005 0
0.64 -0.5 0
0.67 -0.5 0
0.639972 -0.47005 0
0.66998 -0.470026 0
0.67 -0.5 0
0.7 -0.5 0
0.66998 -0.470026 0
0.699986 -0.470013 0
0.7 -0.5 0
0.73 -0.5 0
0.699986 -0.470013 0
0.72999 -0.470006 0
0.73 -0.5 0
0.76 -0.5 0
0.72999 -0.470006 0
0.759994 -0.470003 0
0.76 -0.5 0
0.79 -0.5 0
0.759994 -0.470003 0
0.78998 -0.469916 0
0.79 -0.5 0
0.82 -0.5 0
0.78998 -0.469916 0
0.819956 -0.469877 0
0.82 -0.5 0
0.85 -0.5 0
0.819956 -0.469877 0
0.849929 -0.469833 0
0.85 -0.5 0
0.88 -0.5 0
0.849929 -0.469833 0
0.879924 -0.469805 0
0.88 -0.5 0
0.91 -0.5 0
0.879924 -0.469805 0
0.909913 -0.469792 0
0.91 -0.5 0
0.94 -0.5 0
0.909913 -0.469792 0
0.939922 -0.469775 0
0.94 -0.5 0
0.97 -0.5 0
0.939922 -0.469775 0
0.969956 -0.46974 0
0.97 -0.5 0
1 -0.5 0
0.969956 -0.46974 0
1 -0.469697 0
-0.744681 0.244681 0
-0.723404 0.223404 0
-0.723868 0.265704 0
-0.702394 0.245107 0
-0.702128 0.202128 0
-0.680976 0.2243 0
-0.723404 0.223404 0
-0.702394 0.245107 0
-0.702128 0.202128 0
-0.680851 0.180851 0
-0.680976 0.2243 0
-0.659597 0.203254 0
-0.680851 0.180851 0
-0.659574 0.159574 0
-0.659597 0.203254 0
-0.638233 0.18203 0
-0.638298 0.138298 0
-0.616915 0.16063 0
-0.659574 0.159574 0
-0.638233 0.18203 0
-0.617021 0.117021 0
-0.595665 0.139192 0
-0.638298 0.138298 0
-0.616915 0.16063 0
-0.617021 0.117021 0
-0.595745 0.095745 0
-0.595665 0.139192 0
-0.574431 0.117764 0
-0.595745 0.095745 0
-0.574468 0.074468 0
-0.574431 0.117764 0
-0.553204 0.096309 0
-0.553191 0.053191 0
-0.53184 0.075023 0
-0.574468 0.074468 0
-0.553204 0.096309 0
-0.553191 0.053191 0
-0.531915 0.031915 0
-0.53184 0.075023 0
-0.510492 0.053733 0
-0.531915 0.031915 0
-0.510638 0.010638 0
-0.510492 0.053733 0
-0.489127 0.032461 0
-0.510638 0.010638 0
-0.489362 -0.010638 0
-0.489127 0.032461 0
-0.467791 0.011178 0
-0.489362 -0.010638 0
-0.468085 -0.031915 0
-0.467791 0.011178 0
-0.446536 -0.010172 0
-0.446809 -0.053191 0
-0.42524 -0.031466 0
-0.468085 -0.031915 0
-0.446536 -0.010172 0
-0.425532 -0.074468 0
-0.404012 -0.052824 0
-0.446809 -0.053191 0
-0.42524 -0.031466 0
-0.425532 -0.074468 0
-0.404255 -0.095745 0
-0.404012 -0.052824 0
-0.382783 -0.074175 0
-0.404255 -0.095745 0
-0.382979 -0.117021 0
-0.382783 -0.074175 0
-0.361545 -0.095511 0
-0.382979 -0.117021 0
-0.361702 -0.138298 0
-0.361545 -0.095511 0
-0.340288 -0.116831 0
-0.361702 -0.138298 0
-0.340426 -0.159574 0
-0.340288 -0.116831 0
-0.319034 -0.138159 0
-0.340426 -0.159574 0
-0.319149 -0.180851 0
-0.319034 -0.138159 0
-0.297766 -0.159484 0
-0.319149 -0.180851 0
-0.297872 -0.202128 0
-0.297766 -0.159484 0
-0.276489 -0.180797 0
-0.297872 -0.202128 0
-0.276596 -0.223404 0
-0.276489 -0.180797 0
-0.255087 -0.202105 0
-0.255319 -0.244681 0
-0.233674 -0.223466 0
-0.276596 -0.223404 0
-0.255087 -0.202105 0
-0.234043 -0.265957 0
-0.212119 -0.244916 0
-0.255319 -0.244681 0
-0.233674 -0.223466 0
-0.234043 -0.265957 0
-0.212766 -0.287234 0
-0.212119 -0.244916 0
-0.190657 -0.266392 0
-0.191489 -0.308511 0
-0.169261 -0.287934 0
-0.212766 -0.287234 0
-0.190657 -0.266392 0
-0.170213 -0.329787 0
-0.147854 -0.309624 0
-0.191489 -0.308511 0
-0.169261 -0.287934 0
-0.170213 -0.329787 0
-0.148936 -0.351064 0
-0.147854 -0.309624 0
-0.126431 -0.331364 0
-0.12766 -0.37234 0
-0.105256 -0.353368 0
-0.148936 -0.351064 0
-0.126431 -0.331364 0
-0.12766 -0.37234 0
-0.106383 -0.393617 0
-0.105256 -0.353368 0
-0.083924 -0.375263 0
-0.106383 -0.393617 0
-0.085106 -0.414894 0
-0.083924 -0.375263 0
-0.062097 -0.396824 0
[...]
POINT_DATA 7216
VECTORS momentum double
0.00113564 -0.00114317 0
0.0058209 -0.00620441 0
0.0145515 -0.00126657 0
0.01792 -0.00394807 0
0.0145515 -0.00126657 0
0.01792 -0.00394807 0
0.0327111 -0.000288193 0
0.0345238 -0.00322257 0
-0.000142239 -0.000391068 0
6.33361e-05 -0.000385956 0
-5.06077e-05 -0.000907568 0
6.40745e-05 -0.000889153 0
-0.000214546 -0.000514143 0
-5.06077e-05 -0.000907568 0
6.90128e-05 -0.000541722 0
6.40745e-05 -0.000889153 0
-6.89813e-06 -0.0009003 0
-0.000214546 -0.000514143 0
7.63839e-06 -0.00102152 0
6.90128e-05 -0.000541722 0
3.47495e-05 -0.000502107 0
-6.89813e-06 -0.0009003 0
-2.56668e-05 -0.000528366 0
7.63839e-06 -0.00102152 0
6.41076e-05 -0.000691905 0
3.47495e-05 -0.000502107 0
-1.40578e-05 -0.000777594 0
-2.56668e-05 -0.000528366 0
1.5641e-05 -0.000311068 0
6.41076e-05 -0.000691905 0
-8.35998e-05 -0.00025579 0
-1.40578e-05 -0.000777594 0
0.00027984 -0.000557917 0
1.5641e-05 -0.000311068 0
0.000142767 -0.00046143 0
-8.35998e-05 -0.00025579 0
7.53167e-06 -0.000186342 0
0.00027984 -0.000557917 0
-0.000130037 -0.000570845 0
0.000142767 -0.00046143 0
-5.47821e-05 -0.00106049 0
-0.000130037 -0.000570845 0
0.000345254 -0.000484759 0
0.000142767 -0.00046143 0
-2.54764e-05 -0.00102649 0
-5.47821e-05 -0.00106049 0
-0.000506866 -0.000491684 0
0.000345254 -0.000484759 0
-2.8273e-05 -0.000512968 0
-2.54764e-05 -0.00102649 0
-0.000272131 -0.000391384 0
-0.000506866 -0.000491684 0
-0.00011543 -0.000142795 0
-2.8273e-05 -0.000512968 0
-0.000342645 -0.000474641 0
-0.000272131 -0.000391384 0
1.64652e-05 -0.00022631 0
-0.000342645 -0.000474641 0
5.47301e-05 -5.84994e-05 0
-0.000272131 -0.000391384 0
-7.33357e-05 -0.00061005 0
1.64652e-05 -0.00022631 0
-3.30664e-05 -0.000684957 0
5.47301e-05 -5.84994e-05 0
1.25678e-05 -0.00032951 0
-7.33357e-05 -0.00061005 0
1.18185e-05 -0.000265867 0
-3.30664e-05 -0.000684957 0
-4.22336e-05 -0.000733767 0
1.25678e-05 -0.00032951 0
-1.02046e-05 -0.000765318 0
1.18185e-05 -0.000265867 0
7.70286e-06 -0.000358904 0
-4.22336e-05 -0.000733767 0
5.14525e-06 -0.000334177 0
-1.02046e-05 -0.000765318 0
-2.80469e-05 -0.000824978 0
7.70286e-06 -0.000358904 0
-5.14163e-06 -0.000835915 0
5.14525e-06 -0.000334177 0
1.12365e-05 -0.000370415 0
-2.80469e-05 -0.000824978 0
3.86993e-06 -0.000359839 0
-5.14163e-06 -0.000835915 0
-2.05837e-05 -0.000666569 0
-1.16652e-05 -0.00174434 0
-2.08867e-05 -0.000666879 0
-9.085e-06 -0.00174686 0
-1.82949e-05 -0.000666947 0
-1.22922e-05 -0.00174169 0
-2.05837e-05 -0.000666569 0
-1.16652e-05 -0.00174434 0
-1.74386e-05 -0.000666455 0
-1.0339e-05 -0.00173895 0
-1.82949e-05 -0.000666947 0
-1.22922e-05 -0.00174169 0
-1.6649e-05 -0.000665414 0
-9.61219e-06 -0.00173615 0
-1.74386e-05 -0.000666455 0
-1.0339e-05 -0.00173895 0
-1.57829e-05 -0.00066469 0
-7.65451e-06 -0.00173376 0
-1.6649e-05 -0.000665414 0
-9.61219e-06 -0.00173615 0
-1.43321e-05 -0.00066311 0
-5.68856e-06 -0.00173155 0
-1.57829e-05 -0.00066469 0
-7.65451e-06 -0.00173376 0
-1.11265e-05 -0.000662288 0
-2.81134e-06 -0.00172961 0
-1.43321e-05 -0.00066311 0
-5.68856e-06 -0.00173155 0
-7.62755e-06 -0.000660593 0
1.24194e-06 -0.00172862 0
-1.11265e-05 -0.000662288 0
-2.81134e-06 -0.00172961 0
-1.61809e-06 -0.000659273 0
4.95086e-06 -0.00172797 0
-7.62755e-06 -0.000660593 0
1.24194e-06 -0.00172862 0
5.12499e-06 -0.000658442 0
1.05785e-05 -0.00172832 0
-1.61809e-06 -0.000659273 0
4.95086e-06 -0.00172797 0
1.47833e-05 -0.000657314 0
1.68003e-05 -0.00172861 0
5.12499e-06 -0.000658442 0
1.05785e-05 -0.00172832 0
2.64719e-05 -0.000656598 0
2.01326e-05 -0.0017306 0
1.47833e-05 -0.000657314 0
1.68003e-05 -0.00172861 0
2.64719e-05 -0.000656598 0
3.56269e-05 -0.000657378 0
2.01326e-05 -0.0017306 0
2.45407e-05 -0.00173318 0
4.48647e-05 -0.000657667 0
2.64325e-05 -0.001738 0
3.56269e-05 -0.000657378 0
2.45407e-05 -0.00173318 0
4.97891e-05 -0.000660386 0
2.67914e-05 -0.00174185 0
4.48647e-05 -0.000657667 0
2.64325e-05 -0.001738 0
4.72365e-05 -0.000663161 0
3.11063e-05 -0.00174344 0
4.97891e-05 -0.000660386 0
2.67914e-05 -0.00174185 0
4.61169e-05 -0.00066447 0
3.3576e-05 -0.00174293 0
4.72365e-05 -0.000663161 0
3.11063e-05 -0.00174344 0
3.8233e-05 -0.000666812 0
3.32763e-05 -0.00174159 0
4.61169e-05 -0.00066447 0
3.3576e-05 -0.00174293 0
2.48003e-05 -0.000667666 0
3.03478e-05 -0.0017392 0
3.8233e-05 -0.000666812 0
3.32763e-05 -0.00174159 0
1.38764e-05 -0.000666884 0
2.44998e-05 -0.00173499 0
2.48003e-05 -0.000667666 0
3.03478e-05 -0.0017392 0
6.87862e-06 -0.000665159 0
1.41136e-05 -0.00173243 0
1.38764e-05 -0.000666884 0
2.44998e-05 -0.00173499 0
2.7648e-06 -0.000665346 0
4.90902e-06 -0.00172861 0
6.87862e-06 -0.000665159 0
1.41136e-05 -0.00173243 0
-4.30519e-06 -0.000665194 0
-8.23467e-07 -0.00172906 0
2.7648e-06 -0.000665346 0
4.90902e-06 -0.00172861 0
-7.16232e-06 -0.00066536 0
-8.03429e-06 -0.0017274 0
-4.30519e-06 -0.000665194 0
-8.23467e-07 -0.00172906 0
-6.93312e-06 -0.00066693 0
-1.37013e-05 -0.00172362 0
-7.16232e-06 -0.00066536 0
-8.03429e-06 -0.0017274 0
-1.31029e-05 -0.000670654 0
-1.84198e-05 -0.00171841 0
-6.93312e-06 -0.00066693 0
-1.37013e-05 -0.00172362 0
-2.30262e-05 -0.000674972 0
-1.79625e-05 -0.00171154 0
-1.31029e-05 -0.000670654 0
-1.84198e-05 -0.00171841 0
-2.92695e-05 -0.000674025 0
-1.53886e-05 -0.00170923 0
-2.30262e-05 -0.000674972 0
-1.79625e-05 -0.00171154 0
-3.02806e-05 -0.000671395 0
-1.42246e-05 -0.001709 0
-2.92695e-05 -0.000674025 0
-1.53886e-05 -0.00170923 0
-2.93276e-05 -0.000667376 0
-1.18853e-05 -0.00171151 0
-3.02806e-05 -0.000671395 0
-1.42246e-05 -0.001709 0
-2.37828e-05 -0.000662483 0
-6.64982e-06 -0.00171506 0
-2.93276e-05 -0.000667376 0
-1.18853e-05 -0.00171151 0
-1.53735e-05 -0.000657656 0
-3.8335e-06 -0.00171905 0
-2.37828e-05 -0.000662483 0
-6.64982e-06 -0.00171506 0
-1.8464e-06 -0.000656131 0
2.39605e-06 -0.00171892 0
-1.53735e-05 -0.000657656 0
-3.8335e-06 -0.00171905 0
7.76787e-06 -0.000655922 0
1.01092e-05 -0.00172006 0
-1.8464e-06 -0.000656131 0
2.39605e-06 -0.00171892 0
2.53817e-05 -0.000655968 0
2.24387e-05 -0.0017185 0
7.76787e-06 -0.000655922 0
1.01092e-05 -0.00172006 0
3.61047e-05 -0.000657291 0
2.04266e-05 -0.0017181 0
2.53817e-05 -0.000655968 0
2.24387e-05 -0.0017185 0
4.26088e-05 -0.000660681 0
2.19187e-05 -0.00171478 0
3.61047e-05 -0.000657291 0
2.04266e-05 -0.0017181 0
2.59071e-05 -0.00066503 0
4.9153e-06 -0.00170998 0
4.26088e-05 -0.000660681 0
2.19187e-05 -0.00171478 0
2.1654e-05 -0.000670442 0
-1.27349e-06 -0.00170245 0
2.59071e-05 -0.00066503 0
4.9153e-06 -0.00170998 0
2.1654e-05 -0.000670442 0
-2.10976e-05 -0.000675818 0
-1.27349e-06 -0.00170245 0
-3.19227e-05 -0.00169605 0
-2.93171e-05 -0.000674964 0
-1.91665e-05 -0.00169765 0
-2.10976e-05 -0.000675818 0
-3.19227e-05 -0.00169605 0
-8.4498e-05 -0.000671009 0
-5.21817e-05 -0.00170488 0
-2.93171e-05 -0.000674964 0
-1.91665e-05 -0.00169765 0
-5.27852e-05 -0.000663926 0
-1.32325e-05 -0.00170072 0
-8.4498e-05 -0.000671009 0
-5.21817e-05 -0.00170488 0
-0.000121974 -0.000656592 0
-8.18095e-05 -0.00171309 0
-5.27852e-05 -0.000663926 0
-1.32325e-05 -0.00170072 0
-5.29866e-05 -0.00064888 0
-2.03752e-05 -0.00170324 0
-0.000121974 -0.000656592 0
-8.18095e-05 -0.00171309 0
-5.29866e-05 -0.00064888 0
-0.000231086 -0.000638465 0
-2.03752e-05 -0.00170324 0
-0.000212128 -0.0017167 0
-0.000231086 -0.000638465 0
-0.000233447 -0.000636502 0
-0.000212128 -0.0017167 0
-0.000240622 -0.00165561 0
-0.000853365 -0.00063358 0
-0.000861253 -0.00162508 0
-0.000233447 -0.000636502 0
-0.000240622 -0.00165561 0
-0.00136867 -0.000634292 0
-0.00135481 -0.00140648 0
-0.000853365 -0.00063358 0
-0.000861253 -0.00162508 0
-0.00333648 -0.000607854 0
-0.00325167 -0.00118247 0
-0.00136867 -0.000634292 0
-0.00135481 -0.00140648 0
-0.00552554 -0.000594794 0
-0.00535196 -0.0004475 0
-0.00333648 -0.000607854 0
-0.00325167 -0.00118247 0
-0.0109538 -0.000531627 0
-0.0106523 0.000580954 0
-0.00552554 -0.000594794 0
-0.00535196 -0.0004475 0
-0.0177271 -0.000527517 0
-0.0170083 0.00305318 0
-0.0109538 -0.000531627 0
-0.0106523 0.000580954 0
-0.0315305 -0.000292372 0
-0.0304666 0.00640522 0
-0.0177271 -0.000527517 0
-0.0170083 0.00305318 0
-0.0496713 -0.000186143 0
-0.0480863 0.0144693 0
-0.0315305 -0.000292372 0
-0.0304666 0.00640522 0
-0.0789504 -0.000627584 0
-0.0825079 0.0142685 0
-0.0496713 -0.000186143 0
-0.0480863 0.0144693 0
-0.0891581 -0.000520869 0
-0.103018 -0.0183535 0
-0.0789504 -0.000627584 0
-0.0825079 0.0142685 0
0.00558648 -0.00220298 0
0.0102391 -0.0352738 0
-0.00594024 -0.00172158 0
-0.00466671 -0.0426015 0
1.25248e-06 -0.000380256 0
-3.57786e-05 -0.000825915 0
1.12365e-05 -0.000370415 0
-2.80469e-05 -0.000824978 0
1.25248e-06 -0.000380256 0
-1.26963e-05 -0.000392704 0
-3.57786e-05 -0.000825915 0
-3.40484e-05 -0.000821346 0
-2.062e-05 -0.000395063 0
-3.3272e-05 -0.00082515 0
-1.26963e-05 -0.000392704 0
-3.40484e-05 -0.000821346 0
-2.062e-05 -0.000395063 0
-1.68067e-05 -0.000401402 0
-3.3272e-05 -0.00082515 0
-3.26017e-05 -0.000823462 0
-1.68067e-05 -0.000401402 0
-1.2983e-05 -0.000402606 0
-3.26017e-05 -0.000823462 0
-2.59956e-05 -0.000828483 0
-1.2983e-05 -0.000402606 0
-7.18626e-06 -0.000405998 0
-2.59956e-05 -0.000828483 0
-1.89512e-05 -0.000830834 0
-7.18626e-06 -0.000405998 0
-9.36928e-07 -0.000405274 0
-1.89512e-05 -0.000830834 0
-1.33314e-05 -0.000837058 0
-9.36928e-07 -0.000405274 0
5.11381e-06 -0.000408286 0
-1.33314e-05 -0.000837058 0
-1.06166e-05 -0.000840468 0
5.11381e-06 -0.000408286 0
6.9241e-06 -0.00040984 0
-1.06166e-05 -0.000840468 0
-5.13407e-06 -0.00084451 0
6.9241e-06 -0.00040984 0
7.82718e-06 -0.000412132 0
-5.13407e-06 -0.00084451 0
-1.40021e-06 -0.000846986 0
7.82718e-06 -0.000412132 0
7.98437e-06 -0.000412902 0
-1.40021e-06 -0.000846986 0
1.93111e-06 -0.000849293 0
7.98437e-06 -0.000412902 0
7.76752e-06 -0.000414162 0
1.93111e-06 -0.000849293 0
3.67048e-06 -0.000850446 0
7.76752e-06 -0.000414162 0
7.28003e-06 -0.000414299 0
3.67048e-06 -0.000850446 0
5.56275e-06 -0.000851526 0
7.28003e-06 -0.000414299 0
6.75073e-06 -0.000414633 0
5.56275e-06 -0.000851526 0
5.80582e-06 -0.000852173 0
6.75073e-06 -0.000414633 0
6.93901e-06 -0.000414608 0
5.80582e-06 -0.000852173 0
5.83872e-06 -0.000853142 0
6.93901e-06 -0.000414608 0
8.66108e-06 -0.000414787 0
5.83872e-06 -0.000853142 0
4.29673e-06 -0.000854612 0
8.66108e-06 -0.000414787 0
8.93963e-06 -0.000415408 0
4.29673e-06 -0.000854612 0
3.02444e-06 -0.000855897 0
8.93963e-06 -0.000415408 0
8.44794e-06 -0.000416259 0
3.02444e-06 -0.000855897 0
3.17815e-06 -0.000857613 0
8.44794e-06 -0.000416259 0
7.89867e-06 -0.000417141 0
3.17815e-06 -0.000857613 0
3.4772e-06 -0.000859305 0
7.89867e-06 -0.000417141 0
6.16891e-06 -0.000417831 0
3.4772e-06 -0.000859305 0
3.31869e-06 -0.000860712 0
6.16891e-06 -0.000417831 0
5.13957e-06 -0.000418079 0
3.31869e-06 -0.000860712 0
2.90442e-06 -0.000862145 0
5.13957e-06 -0.000418079 0
4.41954e-06 -0.000418485 0
2.90442e-06 -0.000862145 0
2.44208e-06 -0.000862788 0
4.41954e-06 -0.000418485 0
4.00328e-06 -0.000418464 0
2.44208e-06 -0.000862788 0
2.21966e-06 -0.00086312 0
4.00328e-06 -0.000418464 0
3.5922e-06 -0.000418387 0
2.21966e-06 -0.00086312 0
1.38936e-06 -0.000863273 0
0.12486 -0.120645 0
0.0928868 -0.0899087 0
0.14345 -0.108046 0
0.104193 -0.0658156 0
0.060147 -0.0591203 0
0.070071 -0.0395105 0
0.0928868 -0.0899087 0
0.104193 -0.0658156 0
0.060147 -0.0591203 0
0.0390884 -0.0387043 0
0.070071 -0.0395105 0
0.0435092 -0.0286647 0
0.0390884 -0.0387043 0
0.0244593 -0.0246176 0
0.0435092 -0.0286647 0
0.0271399 -0.0191493 0
0.015526 -0.0158301 0
0.0164187 -0.0131369 0
0.0244593 -0.0246176 0
0.0271399 -0.0191493 0
0.00934101 -0.00978618 0
0.0097587 -0.00839053 0
0.015526 -0.0158301 0
0.0164187 -0.0131369 0
0.00934101 -0.00978618 0
0.00560732 -0.00607936 0
0.0097587 -0.00839053 0
0.00546136 -0.00550458 0
0.00560732 -0.00607936 0
0.00318505 -0.00369646 0
0.00546136 -0.00550458 0
0.00292912 -0.00347233 0
0.00177655 -0.00229279 0
0.00135935 -0.00228349 0
0.00318505 -0.00369646 0
0.00292912 -0.00347233 0
0.00177655 -0.00229279 0
0.000932997 -0.00146639 0
0.00135935 -0.00228349 0
0.000513428 -0.00154367 0
0.000932997 -0.00146639 0
0.000450864 -0.000977019 0
0.000513428 -0.00154367 0
-4.24252e-07 -0.00112502 0
0.000450864 -0.000977019 0
0.000194997 -0.000719481 0
-4.24252e-07 -0.00112502 0
-0.000251762 -0.000888946 0
0.000194997 -0.000719481 0
4.18474e-05 -0.000556924 0
-0.000251762 -0.000888946 0
-0.000406443 -0.000745396 0
-2.59396e-05 -0.000482302 0
-0.000470424 -0.000667646 0
4.18474e-05 -0.000556924 0
-0.000406443 -0.000745396 0
-7.613e-05 -0.0004299 0
-0.000510835 -0.000608256 0
-2.59396e-05 -0.000482302 0
-0.000470424 -0.000667646 0
-7.613e-05 -0.0004299 0
-9.72573e-05 -0.000405239 0
-0.000510835 -0.000608256 0
-0.000520614 -0.00057846 0
-9.72573e-05 -0.000405239 0
-0.00011289 -0.000386741 0
-0.000520614 -0.00057846 0
-0.000524404 -0.000552673 0
-0.00011289 -0.000386741 0
-0.000118807 -0.000375757 0
-0.000524404 -0.000552673 0
-0.000521315 -0.000541542 0
-0.000118807 -0.000375757 0
-0.000116214 -0.000372019 0
-0.000521315 -0.000541542 0
-0.000515379 -0.000533855 0
-0.000116214 -0.000372019 0
-0.000115933 -0.000366781 0
-0.000515379 -0.000533855 0
-0.000509523 -0.000529631 0
-0.000115933 -0.000366781 0
-9.96251e-05 -0.000375716 0
-0.000509523 -0.000529631 0
-0.000493591 -0.000530351 0
-9.96251e-05 -0.000375716 0
-9.96305e-05 -0.000373695 0
-0.000493591 -0.000530351 0
-0.000488195 -0.000533735 0
-7.60133e-05 -0.000383745 0
-0.000462734 -0.000554396 0
-9.96305e-05 -0.000373695 0
-0.000488195 -0.000533735 0
-7.10302e-05 -0.000379318 0
-0.000477045 -0.000555681 0
-7.60133e-05 -0.000383745 0
-0.000462734 -0.000554396 0
-7.10302e-05 -0.000379318 0
-3.99551e-05 -0.000410746 0
-0.000477045 -0.000555681 0
-0.000448312 -0.000567126 0
-4.56046e-05 -0.000417645 0
-0.000452817 -0.000552756 0
-3.99551e-05 -0.000410746 0
-0.000448312 -0.000567126 0
-1.26479e-05 -0.000478417 0
-0.000364425 -0.000578678 0
-4.56046e-05 -0.000417645 0
-0.000452817 -0.000552756 0
-1.26479e-05 -0.000478417 0
-3.38767e-05 -0.000456094 0
-0.000364425 -0.000578678 0
-0.000352335 -0.000604294 0
5.16135e-05 -0.000525749 0
-0.00028007 -0.000680816 0
-3.38767e-05 -0.000456094 0
-0.000352335 -0.000604294 0
5.16135e-05 -0.000525749 0
7.00004e-05 -0.000542777 0
-0.00028007 -0.000680816 0
-0.000318487 -0.000685523 0
7.00004e-05 -0.000542777 0
0.000180329 -0.000674819 0
-0.000318487 -0.000685523 0
-0.000175623 -0.000802046 0
0.000180329 -0.000674819 0
0.000137753 -0.000633022 0
-0.000175623 -0.000802046 0
-0.000188737 -0.000726044 0
0.000137753 -0.000633022 0
8.06862e-05 -0.000552139 0
-0.000188737 -0.000726044 0
0.00010261 -0.000978924 0
8.06862e-05 -0.000552139 0
7.61008e-05 -0.000385423 0
0.00010261 -0.000978924 0
-6.5878e-05 -0.000483046 0
7.61008e-05 -0.000385423 0
6.0668e-05 -0.00042287 0
-6.5878e-05 -0.000483046 0
-0.000117085 -0.000856862 0
6.0668e-05 -0.00042287 0
0.000193513 -0.000283215 0
-0.000117085 -0.000856862 0
8.25801e-05 -0.000725847 0
0.000193513 -0.000283215 0
0.000148774 -0.000365784 0
8.25801e-05 -0.000725847 0
-0.000251808 -0.000823381 0
0.000148774 -0.000365784 0
6.88803e-05 -0.000436831 0
-0.000251808 -0.000823381 0
3.82901e-05 -0.000771423 0
6.88803e-05 -0.000436831 0
-0.000142239 -0.000391068 0
3.82901e-05 -0.000771423 0
-5.06077e-05 -0.000907568 0
2.21966e-06 -0.00086312 0
1.38936e-06 -0.000863273 0
1.34668e-06 -0.000477023 0
3.01132e-07 -0.000478853 0
1.34668e-06 -0.000477023 0
3.01132e-07 -0.000478853 0
-1.64109e-07 -0.000812677 0
-1.27246e-06 -0.000813218 0
-1.64109e-07 -0.000812677 0
-1.27246e-06 -0.000813218 0
-2.05927e-06 -0.000501485 0
-2.0943e-06 -0.00050237 0
-2.05927e-06 -0.000501485 0
-2.0943e-06 -0.00050237 0
-2.53046e-06 -0.0007146 0
-4.10913e-06 -0.00071575 0
-2.53046e-06 -0.0007146 0
-4.10913e-06 -0.00071575 0
-4.90755e-06 -0.000426937 0
-5.31285e-06 -0.000427546 0
-4.90755e-06 -0.000426937 0
-5.31285e-06 -0.000427546 0
-5.1865e-06 -0.0005323 0
-6.49499e-06 -0.000533391 0
-7.66155e-06 -0.000277278 0
-5.1865e-06 -0.0005323 0
-8.11272e-06 -0.000278152 0
-6.49499e-06 -0.000533391 0
-7.66155e-06 -0.000277278 0
-8.11272e-06 -0.000278152 0
-8.58339e-06 -0.000331084 0
-8.88253e-06 -0.000332175 0
-8.58339e-06 -0.000331084 0
-8.88253e-06 -0.000332175 0
-1.10932e-05 -0.000139875 0
-1.08317e-05 -0.00014149 0
-1.10932e-05 -0.000139875 0
-1.08317e-05 -0.00014149 0
-1.33839e-05 -0.000182919 0
-1.2772e-05 -0.000185144 0
-1.33839e-05 -0.000182919 0
-1.2772e-05 -0.000185144 0
-1.74415e-05 -6.31022e-05 0
-1.67922e-05 -6.69837e-05 0
-1.74415e-05 -6.31022e-05 0
-1.67922e-05 -6.69837e-05 0
-2.29897e-05 -0.000103498 0
-2.39751e-05 -0.000109624 0
-2.29897e-05 -0.000103498 0
-2.39751e-05 -0.000109624 0
-3.12862e-05 -4.16435e-05 0
-3.55007e-05 -5.05059e-05 0
-3.12862e-05 -4.16435e-05 0
-3.55007e-05 -5.05059e-05 0
-4.20267e-05 -6.92016e-05 0
-5.25219e-05 -8.14378e-05 0
-4.20267e-05 -6.92016e-05 0
-5.25219e-05 -8.14378e-05 0
-5.51252e-05 -4.55769e-05 0
-7.55654e-05 -5.97199e-05 0
-5.51252e-05 -4.55769e-05 0
-7.55654e-05 -5.97199e-05 0
-6.79693e-05 -4.40607e-05 0
-0.000100356 -5.79921e-05 0
-6.79693e-05 -4.40607e-05 0
-0.000100356 -5.79921e-05 0
-7.78146e-05 -4.49135e-05 0
-0.000122827 -5.4279e-05 0
-7.78146e-05 -4.49135e-05 0
-0.000122827 -5.4279e-05 0
-7.99157e-05 -5.96442e-06 0
-0.000131911 -6.84244e-06 0
-7.99157e-05 -5.96442e-06 0
-0.000131911 -6.84244e-06 0
-7.3574e-05 -4.31614e-05 0
-0.000123597 -3.4243e-05 0
-7.3574e-05 -4.31614e-05 0
-0.000123597 -3.4243e-05 0
-5.90631e-05 1.94216e-05 0
-9.88021e-05 3.40533e-05 0
-5.90631e-05 1.94216e-05 0
-9.88021e-05 3.40533e-05 0
-4.24722e-05 -9.27681e-05 0
-6.97547e-05 -7.64511e-05 0
-4.24722e-05 -9.27681e-05 0
-6.97547e-05 -7.64511e-05 0
-2.52221e-05 -2.33277e-05 0
-4.15092e-05 -9.96801e-06 0
-2.52221e-05 -2.33277e-05 0
-4.15092e-05 -9.96801e-06 0
-1.44165e-05 -0.000255152 0
-2.25717e-05 -0.000244958 0
-1.44165e-05 -0.000255152 0
-2.25717e-05 -0.000244958 0
-3.43307e-06 -0.000184432 0
-6.82395e-06 -0.00018015 0
-3.43307e-06 -0.000184432 0
-6.82395e-06 -0.00018015 0
-4.77655e-06 -0.000582834 0
-7.14794e-06 -0.000579395 0
-4.77655e-06 -0.000582834 0
-7.14794e-06 -0.000579395 0
1.56724e-06 -0.000488518 0
1.55406e-06 -0.000486317 0
1.56724e-06 -0.000488518 0
1.55406e-06 -0.000486317 0
-2.33005e-06 -0.00107237 0
-3.22229e-06 -0.00107034 0
-2.33005e-06 -0.00107237 0
-3.22229e-06 -0.00107034 0
4.03192e-06 -0.000815182 0
5.50797e-06 -0.000815291 0
4.03192e-06 -0.000815182 0
5.50797e-06 -0.000815291 0
-5.92631e-06 -0.00150927 0
-4.69551e-06 -0.00151217 0
-5.92631e-06 -0.00150927 0
-4.69551e-06 -0.00151217 0
-6.70637e-06 -0.000873044 0
-5.58051e-06 -0.000875194 0
-6.70637e-06 -0.000873044 0
-5.58051e-06 -0.000875194 0
-1.16652e-05 -0.00174434 0
-9.085e-06 -0.00174686 0
0.070071 -0.0395105 0
0.0691379 -0.0120553 0
0.104193 -0.0658156 0
0.111097 -0.0086626 0
0.070071 -0.0395105 0
0.0435092 -0.0286647 0
0.0691379 -0.0120553 0
0.0423945 -0.0122903 0
0.0435092 -0.0286647 0
0.0271399 -0.0191493 0
0.0423945 -0.0122903 0
0.0269584 -0.0108812 0
0.0164187 -0.0131369 0
0.0162985 -0.0079243 0
0.0271399 -0.0191493 0
0.0269584 -0.0108812 0
0.0097587 -0.00839053 0
0.00992902 -0.0057551 0
0.0164187 -0.0131369 0
0.0162985 -0.0079243 0
0.0097587 -0.00839053 0
0.00546136 -0.00550458 0
0.00992902 -0.0057551 0
0.00559365 -0.00368903 0
0.00546136 -0.00550458 0
0.00292912 -0.00347233 0
0.00559365 -0.00368903 0
0.00315549 -0.00248359 0
0.00135935 -0.00228349 0
0.00156818 -0.00152655 0
0.00292912 -0.00347233 0
0.00315549 -0.00248359 0
0.00135935 -0.00228349 0
0.000513428 -0.00154367 0
0.00156818 -0.00152655 0
0.000729244 -0.00105239 0
0.000513428 -0.00154367 0
-4.24252e-07 -0.00112502 0
0.000729244 -0.00105239 0
0.00021129 -0.000673685 0
-4.24252e-07 -0.00112502 0
-0.000251762 -0.000888946 0
0.00021129 -0.000673685 0
-2.91283e-05 -0.000517599 0
-0.000251762 -0.000888946 0
-0.000406443 -0.000745396 0
-2.91283e-05 -0.000517599 0
-0.000180202 -0.000378548 0
-0.000470424 -0.000667646 0
-0.000239884 -0.000332339 0
-0.000406443 -0.000745396 0
-0.000180202 -0.000378548 0
-0.000510835 -0.000608256 0
-0.000287586 -0.000287389 0
-0.000470424 -0.000667646 0