# vtk DataFile Version 3.0
#This file was generated by the deal.II library on 2016/12/20 at 10:56:37
ASCII
DATASET UNSTRUCTURED_GRID

POINTS 7216 double
-1 0.5 0
-0.978723 0.478723 0
-0.970149 0.5 0
-0.964976 0.485465 0
-0.970149 0.5 0
-0.964976 0.485465 0
-0.940299 0.5 0
-0.945882 0.477585 0
0.12 -0.5 0
0.15 -0.5 0
0.119014 -0.4708 0
0.15 -0.471429 0
0.11755 -0.441479 0
0.119014 -0.4708 0
0.15 -0.442857 0
0.15 -0.471429 0
0.117242 -0.412206 0
0.11755 -0.441479 0
0.15 -0.414286 0
0.15 -0.442857 0
0.118129 -0.383064 0
0.117242 -0.412206 0
0.15 -0.385714 0
0.15 -0.414286 0
0.12021 -0.354337 0
0.118129 -0.383064 0
0.15 -0.357143 0
0.15 -0.385714 0
0.121793 -0.32584 0
0.12021 -0.354337 0
0.15 -0.328571 0
0.15 -0.357143 0
0.122717 -0.296869 0
0.121793 -0.32584 0
0.15 -0.3 0
0.15 -0.328571 0
0.123759 -0.266752 0
0.122717 -0.296869 0
0.153091 -0.267708 0
0.15 -0.3 0
0.18456 -0.26795 0
0.153091 -0.267708 0
0.183333 -0.3 0
0.15 -0.3 0
0.216606 -0.268111 0
0.18456 -0.26795 0
0.216667 -0.3 0
0.183333 -0.3 0
0.24835 -0.26841 0
0.216606 -0.268111 0
0.25 -0.3 0
0.216667 -0.3 0
0.278782 -0.268564 0
0.24835 -0.26841 0
0.279437 -0.298917 0
0.25 -0.3 0
0.279638 -0.328111 0
0.279437 -0.298917 0
0.25 -0.328571 0
0.25 -0.3 0
0.27971 -0.356801 0
0.279638 -0.328111 0
0.25 -0.357143 0
0.25 -0.328571 0
0.279677 -0.385395 0
0.27971 -0.356801 0
0.25 -0.385714 0
0.25 -0.357143 0
0.279641 -0.413938 0
0.279677 -0.385395 0
0.25 -0.414286 0
0.25 -0.385714 0
0.279666 -0.442534 0
0.279641 -0.413938 0
0.25 -0.442857 0
0.25 -0.414286 0
0.279811 -0.471266 0
0.279666 -0.442534 0
0.25 -0.471429 0
0.25 -0.442857 0
0.28 -0.5 0
0.279811 -0.471266 0
0.25 -0.5 0
0.25 -0.471429 0
0.970149 0.5 0
0.970096 0.46978 0
1 0.5 0
1 0.469697 0
0.940299 0.5 0
0.940231 0.46984 0
0.970149 0.5 0
0.970096 0.46978 0
0.910448 0.5 0
0.910371 0.469856 0
0.940299 0.5 0
0.940231 0.46984 0
0.880597 0.5 0
0.880527 0.469909 0
0.910448 0.5 0
0.910371 0.469856 0
0.850746 0.5 0
0.850684 0.469926 0
0.880597 0.5 0
0.880527 0.469909 0
0.820896 0.5 0
0.820842 0.469978 0
0.850746 0.5 0
0.850684 0.469926 0
0.791045 0.5 0
0.791001 0.470016 0
0.820896 0.5 0
0.820842 0.469978 0
0.761194 0.5 0
0.761159 0.470055 0
0.791045 0.5 0
0.791001 0.470016 0
0.731343 0.5 0
0.731316 0.470091 0
0.761194 0.5 0
0.761159 0.470055 0
0.701493 0.5 0
0.701472 0.470118 0
0.731343 0.5 0
0.731316 0.470091 0
0.671642 0.5 0
0.671627 0.470134 0
0.701493 0.5 0
0.701472 0.470118 0
0.641791 0.5 0
0.64178 0.470142 0
0.671642 0.5 0
0.671627 0.470134 0
0.641791 0.5 0
0.61194 0.5 0
0.64178 0.470142 0
0.611934 0.470065 0
0.58209 0.5 0
0.582089 0.470002 0
0.61194 0.5 0
0.611934 0.470065 0
0.552239 0.5 0
0.552248 0.469853 0
0.58209 0.5 0
0.582089 0.470002 0
0.522388 0.5 0
0.522413 0.469718 0
0.552239 0.5 0
0.552248 0.469853 0
0.492537 0.5 0
0.492577 0.469656 0
0.522388 0.5 0
0.522413 0.469718 0
0.462687 0.5 0
0.462743 0.469571 0
0.492537 0.5 0
0.492577 0.469656 0
0.432836 0.5 0
0.432895 0.46963 0
0.462687 0.5 0
0.462743 0.469571 0
0.402985 0.5 0
0.403046 0.469669 0
0.432836 0.5 0
0.432895 0.46963 0
0.373134 0.5 0
0.373191 0.469745 0
0.402985 0.5 0
0.403046 0.469669 0
0.343284 0.5 0
0.343335 0.469723 0
0.373134 0.5 0
0.373191 0.469745 0
0.313433 0.5 0
0.313478 0.469741 0
0.343284 0.5 0
0.343335 0.469723 0
0.283582 0.5 0
0.283622 0.469783 0
0.313433 0.5 0
0.313478 0.469741 0
0.253731 0.5 0
0.253768 0.469742 0
0.283582 0.5 0
0.283622 0.469783 0
0.223881 0.5 0
0.223918 0.469737 0
0.253731 0.5 0
0.253768 0.469742 0
0.19403 0.5 0
0.194064 0.46981 0
0.223881 0.5 0
0.223918 0.469737 0
0.164179 0.5 0
0.16421 0.469881 0
0.19403 0.5 0
0.194064 0.46981 0
0.134328 0.5 0
0.134355 0.46994 0
0.164179 0.5 0
0.16421 0.469881 0
0.104478 0.5 0
0.1045 0.469997 0
0.134328 0.5 0
0.134355 0.46994 0
0.074627 0.5 0
0.074645 0.470051 0
0.104478 0.5 0
0.1045 0.469997 0
0.044776 0.5 0
0.04479 0.470093 0
0.074627 0.5 0
0.074645 0.470051 0
0.014925 0.5 0
0.014935 0.47012 0
0.044776 0.5 0
0.04479 0.470093 0
-0.014925 0.5 0
-0.014918 0.470135 0
0.014925 0.5 0
0.014935 0.47012 0
-0.044776 0.5 0
-0.044771 0.470143 0
-0.014925 0.5 0
-0.014918 0.470135 0
-0.074627 0.5 0
-0.074623 0.470146 0
-0.044776 0.5 0
-0.044771 0.470143 0
-0.104478 0.5 0
-0.104496 0.469979 0
-0.074627 0.5 0
-0.074623 0.470146 0
-0.134328 0.5 0
-0.134359 0.469935 0
-0.104478 0.5 0
-0.104496 0.469979 0
-0.164179 0.5 0
-0.164225 0.469839 0
-0.134328 0.5 0
-0.134359 0.469935 0
-0.164179 0.5 0
-0.19403 0.5 0
-0.164225 0.469839 0
-0.194083 0.469797 0
-0.223881 0.5 0
-0.22394 0.469753 0
-0.19403 0.5 0
-0.194083 0.469797 0
-0.253731 0.5 0
-0.253798 0.469819 0
-0.223881 0.5 0
-0.22394 0.469753 0
-0.283582 0.5 0
-0.283647 0.470019 0
-0.253731 0.5 0
-0.253798 0.469819 0
-0.313433 0.5 0
-0.313491 0.470151 0
-0.283582 0.5 0
-0.283647 0.470019 0
-0.343284 0.5 0
-0.343348 0.470381 0
-0.313433 0.5 0
-0.313491 0.470151 0
-0.343284 0.5 0
-0.373134 0.5 0
-0.343348 0.470381 0
-0.373195 0.470395 0
-0.373134 0.5 0
-0.402985 0.5 0
-0.373195 0.470395 0
-0.403049 0.470404 0
-0.432836 0.5 0
-0.432937 0.470297 0
-0.402985 0.5 0
-0.403049 0.470404 0
-0.462687 0.5 0
-0.462848 0.469995 0
-0.432836 0.5 0
-0.432937 0.470297 0
-0.492537 0.5 0
-0.492807 0.469765 0
-0.462687 0.5 0
-0.462848 0.469995 0
-0.522388 0.5 0
-0.52276 0.46958 0
-0.492537 0.5 0
-0.492807 0.469765 0
-0.552239 0.5 0
-0.55273 0.469652 0
-0.522388 0.5 0
-0.52276 0.46958 0
-0.58209 0.5 0
-0.582662 0.469731 0
-0.552239 0.5 0
-0.55273 0.469652 0
-0.61194 0.5 0
-0.612594 0.469999 0
-0.58209 0.5 0
-0.582662 0.469731 0
-0.641791 0.5 0
-0.642647 0.470419 0
-0.61194 0.5 0
-0.612594 0.469999 0
-0.671642 0.5 0
-0.672638 0.470543 0
-0.641791 0.5 0
-0.642647 0.470419 0
-0.701493 0.5 0
-0.702968 0.4698 0
-0.671642 0.5 0
-0.672638 0.470543 0
-0.820896 0.5 0
-0.822797 0.47207 0
-0.791045 0.5 0
-0.795702 0.469563 0
0.31 -0.5 0
0.309694 -0.471123 0
0.28 -0.5 0
0.279811 -0.471266 0
0.31 -0.5 0
0.34 -0.5 0
0.309694 -0.471123 0
0.339686 -0.471033 0
0.37 -0.5 0
0.369721 -0.471055 0
0.34 -0.5 0
0.339686 -0.471033 0
0.37 -0.5 0
0.4 -0.5 0
0.369721 -0.471055 0
0.399756 -0.470957 0
0.4 -0.5 0
0.43 -0.5 0
0.399756 -0.470957 0
0.429805 -0.470822 0
0.43 -0.5 0
0.46 -0.5 0
0.429805 -0.470822 0
0.459835 -0.470712 0
0.46 -0.5 0
0.49 -0.5 0
0.459835 -0.470712 0
0.489873 -0.470554 0
0.49 -0.5 0
0.52 -0.5 0
0.489873 -0.470554 0
0.519906 -0.470379 0
0.52 -0.5 0
0.55 -0.5 0
0.519906 -0.470379 0
0.54993 -0.470248 0
0.55 -0.5 0
0.58 -0.5 0
0.54993 -0.470248 0
0.579948 -0.470155 0
0.58 -0.5 0
0.61 -0.5 0
0.579948 -0.470155 0
0.609962 -0.470091 0
0.61 -0.5 0
0.64 -0.5 0
0.609962 -0.470091 0
0.639972 -0.47005 0
0.64 -0.5 0
0.67 -0.5 0
0.639972 -0.47005 0
0.66998 -0.470026 0
0.67 -0.5 0
0.7 -0.5 0
0.66998 -0.470026 0
0.699986 -0.470013 0
0.7 -0.5 0
0.73 -0.5 0
0.699986 -0.470013 0
0.72999 -0.470006 0
0.73 -0.5 0
0.76 -0.5 0
0.72999 -0.470006 0
0.759994 -0.470003 0
0.76 -0.5 0
0.79 -0.5 0
0.759994 -0.470003 0
0.78998 -0.469916 0
0.79 -0.5 0
0.82 -0.5 0
0.78998 -0.469916 0
0.819956 -0.469877 0
0.82 -0.5 0
0.85 -0.5 0
0.819956 -0.469877 0
0.849929 -0.469833 0
0.85 -0.5 0
0.88 -0.5 0
0.849929 -0.469833 0
0.879924 -0.469805 0
0.88 -0.5 0
0.91 -0.5 0
0.879924 -0.469805 0
0.909913 -0.469792 0
0.91 -0.5 0
0.94 -0.5 0
0.909913 -0.469792 0
0.939922 -0.469775 0
0.94 -0.5 0
0.97 -0.5 0
0.939922 -0.469775 0
0.969956 -0.46974 0
0.97 -0.5 0
1 -0.5 0
0.969956 -0.46974 0
1 -0.469697 0
-0.744681 0.244681 0
-0.723404 0.223404 0
-0.723868 0.265704 0
-0.702394 0.245107 0
-0.702128 0.202128 0
-0.680976 0.2243 0
-0.723404 0.223404 0
-0.702394 0.245107 0
-0.702128 0.202128 0
-0.680851 0.180851 0
-0.680976 0.2243 0
-0.659597 0.203254 0
-0.680851 0.180851 0
-0.659574 0.159574 0
-0.659597 0.203254 0
-0.638233 0.18203 0
-0.638298 0.138298 0
-0.616915 0.16063 0
-0.659574 0.159574 0
-0.638233 0.18203 0
-0.617021 0.117021 0
-0.595665 0.139192 0
-0.638298 0.138298 0
-0.616915 0.16063 0
-0.617021 0.117021 0
-0.595745 0.095745 0
-0.595665 0.139192 0
-0.574431 0.117764 0
-0.595745 0.095745 0
-0.574468 0.074468 0
-0.574431 0.117764 0
-0.553204 0.096309 0
-0.553191 0.053191 0
-0.53184 0.075023 0
-0.574468 0.074468 0
-0.553204 0.096309 0
-0.553191 0.053191 0
-0.531915 0.031915 0
-0.53184 0.075023 0
-0.510492 0.053733 0
-0.531915 0.031915 0
-0.510638 0.010638 0
-0.510492 0.053733 0
-0.489127 0.032461 0
-0.510638 0.010638 0
-0.489362 -0.010638 0
-0.489127 0.032461 0
-0.467791 0.011178 0
-0.489362 -0.010638 0
-0.468085 -0.031915 0
-0.467791 0.011178 0
-0.446536 -0.010172 0
-0.446809 -0.053191 0
-0.42524 -0.031466 0
-0.468085 -0.031915 0
-0.446536 -0.010172 0
-0.425532 -0.074468 0
-0.404012 -0.052824 0
-0.446809 -0.053191 0
-0.42524 -0.031466 0
-0.425532 -0.074468 0
-0.404255 -0.095745 0
-0.404012 -0.052824 0
-0.382783 -0.074175 0
-0.404255 -0.095745 0
-0.382979 -0.117021 0
-0.382783 -0.074175 0
-0.361545 -0.095511 0
-0.382979 -0.117021 0
-0.361702 -0.138298 0
-0.361545 -0.095511 0
-0.340288 -0.116831 0
-0.361702 -0.138298 0
-0.340426 -0.159574 0
-0.340288 -0.116831 0
-0.319034 -0.138159 0
-0.340426 -0.159574 0
-0.319149 -0.180851 0
-0.319034 -0.138159 0
-0.297766 -0.159484 0
-0.319149 -0.180851 0
-0.297872 -0.202128 0
-0.297766 -0.159484 0
-0.276489 -0.180797 0
-0.297872 -0.202128 0
-0.276596 -0.223404 0
-0.276489 -0.180797 0
-0.255087 -0.202105 0
-0.255319 -0.244681 0
-0.233674 -0.223466 0
-0.276596 -0.223404 0
-0.255087 -0.202105 0
-0.234043 -0.265957 0
-0.212119 -0.244916 0
-0.255319 -0.244681 0
-0.233674 -0.223466 0
-0.234043 -0.265957 0
-0.212766 -0.287234 0
-0.212119 -0.244916 0
-0.190657 -0.266392 0
-0.191489 -0.308511 0
-0.169261 -0.287934 0
-0.212766 -0.287234 0
-0.190657 -0.266392 0
-0.170213 -0.329787 0
-0.147854 -0.309624 0
-0.191489 -0.308511 0
-0.169261 -0.287934 0
-0.170213 -0.329787 0
-0.148936 -0.351064 0
-0.147854 -0.309624 0
-0.126431 -0.331364 0
-0.12766 -0.37234 0
-0.105256 -0.353368 0
-0.148936 -0.351064 0
-0.126431 -0.331364 0
-0.12766 -0.37234 0
-0.106383 -0.393617 0
-0.105256 -0.353368 0
-0.083924 -0.375263 0
-0.106383 -0.393617 0
-0.085106 -0.414894 0
-0.083924 -0.375263 0
-0.062097 -0.396824 0
[...]
POINT_DATA 7216
VECTORS momentum double
0.00120335 -0.00108168 0
0.0052731 -0.00574363 0
0.0117858 -0.00132247 0
0.0143891 -0.00418583 0
0.0117858 -0.00132247 0
0.0143891 -0.00418583 0
0.0233364 -0.000454431 0
0.0268563 -0.00633682 0
-0.000170395 -0.000387022 0
5.89614e-05 -0.000374424 0
-6.92258e-05 -0.000943154 0
6.39409e-05 -0.000931887 0
-0.00023298 -0.000554206 0
-6.92258e-05 -0.000943154 0
6.41176e-05 -0.000561131 0
6.39409e-05 -0.000931887 0
-2.13812e-07 -0.000914636 0
-0.00023298 -0.000554206 0
1.23315e-05 -0.00104724 0
6.41176e-05 -0.000561131 0
2.1248e-05 -0.000429984 0
-2.13812e-07 -0.000914636 0
-3.78e-05 -0.000407866 0
1.23315e-05 -0.00104724 0
0.000104998 -0.000522206 0
2.1248e-05 -0.000429984 0
1.0203e-05 -0.000666225 0
-3.78e-05 -0.000407866 0
-5.8774e-06 -5.68586e-05 0
0.000104998 -0.000522206 0
-0.0001459 0.000121417 0
1.0203e-05 -0.000666225 0
0.000451608 -0.000179273 0
-5.8774e-06 -5.68586e-05 0
0.000327006 -0.000294808 0
-0.0001459 0.000121417 0
0.000166379 1.8545e-05 0
0.000451608 -0.000179273 0
0.000111596 -0.000405188 0
0.000327006 -0.000294808 0
3.11339e-05 -0.000984769 0
0.000111596 -0.000405188 0
0.000571032 -0.00052789 0
0.000327006 -0.000294808 0
-3.55503e-05 -0.000942375 0
3.11339e-05 -0.000984769 0
-0.000624434 -0.000508709 0
0.000571032 -0.00052789 0
-0.000159189 -0.000404252 0
-3.55503e-05 -0.000942375 0
-0.00037324 -0.000284775 0
-0.000624434 -0.000508709 0
-0.000199718 -9.40921e-06 0
-0.000159189 -0.000404252 0
-0.000441228 -0.000217596 0
-0.00037324 -0.000284775 0
3.53442e-05 -5.12995e-05 0
-0.000441228 -0.000217596 0
9.36008e-05 0.000213054 0
-0.00037324 -0.000284775 0
-0.000103452 -0.000470396 0
3.53442e-05 -5.12995e-05 0
-5.01179e-05 -0.000595246 0
9.36008e-05 0.000213054 0
2.33376e-05 -0.000252704 0
-0.000103452 -0.000470396 0
2.09433e-05 -0.000155869 0
-5.01179e-05 -0.000595246 0
-4.76756e-05 -0.000710425 0
2.33376e-05 -0.000252704 0
-1.49056e-05 -0.000761283 0
2.09433e-05 -0.000155869 0
1.67218e-05 -0.000354995 0
-4.76756e-05 -0.000710425 0
8.29803e-06 -0.000318694 0
-1.49056e-05 -0.000761283 0
-2.52929e-05 -0.000831622 0
1.67218e-05 -0.000354995 0
-6.5486e-06 -0.000849019 0
8.29803e-06 -0.000318694 0
1.84429e-05 -0.000365397 0
-2.52929e-05 -0.000831622 0
5.24134e-06 -0.000350134 0
-6.5486e-06 -0.000849019 0
-1.70677e-05 -0.000667372 0
-9.23469e-06 -0.00175548 0
-1.70947e-05 -0.000667746 0
-6.53813e-06 -0.00175814 0
-1.51536e-05 -0.000667723 0
-9.93325e-06 -0.00175269 0
-1.70677e-05 -0.000667372 0
-9.23469e-06 -0.00175548 0
-1.43956e-05 -0.000667267 0
-7.91157e-06 -0.0017499 0
-1.51536e-05 -0.000667723 0
-9.93325e-06 -0.00175269 0
-1.36439e-05 -0.000666207 0
-7.1848e-06 -0.0017471 0
-1.43956e-05 -0.000667267 0
-7.91157e-06 -0.0017499 0
-1.28474e-05 -0.000665539 0
-5.40948e-06 -0.00174459 0
-1.36439e-05 -0.000666207 0
-7.1848e-06 -0.0017471 0
-1.1764e-05 -0.000664007 0
-3.87902e-06 -0.00174218 0
-1.28474e-05 -0.000665539 0
-5.40948e-06 -0.00174459 0
-9.27096e-06 -0.000663261 0
-1.75773e-06 -0.00173996 0
-1.1764e-05 -0.000664007 0
-3.87902e-06 -0.00174218 0
-6.85803e-06 -0.000661678 0
1.21937e-06 -0.00173864 0
-9.27096e-06 -0.000663261 0
-1.75773e-06 -0.00173996 0
-2.31531e-06 -0.000660415 0
3.50848e-06 -0.00173775 0
-6.85803e-06 -0.000661678 0
1.21937e-06 -0.00173864 0
2.52434e-06 -0.000659643 0
7.36681e-06 -0.00173803 0
-2.31531e-06 -0.000660415 0
3.50848e-06 -0.00173775 0
9.81736e-06 -0.000658581 0
1.16108e-05 -0.00173835 0
2.52434e-06 -0.000659643 0
7.36681e-06 -0.00173803 0
1.88076e-05 -0.000657865 0
1.26438e-05 -0.00174068 0
9.81736e-06 -0.000658581 0
1.16108e-05 -0.00173835 0
1.88076e-05 -0.000657865 0
2.52093e-05 -0.00065879 0
1.26438e-05 -0.00174068 0
1.46625e-05 -0.00174357 0
3.20004e-05 -0.000659092 0
1.43927e-05 -0.00174888 0
2.52093e-05 -0.00065879 0
1.46625e-05 -0.00174357 0
3.51485e-05 -0.000661979 0
1.31226e-05 -0.00175308 0
3.20004e-05 -0.000659092 0
1.43927e-05 -0.00174888 0
3.18302e-05 -0.000664927 0
1.66571e-05 -0.00175487 0
3.51485e-05 -0.000661979 0
1.31226e-05 -0.00175308 0
3.08376e-05 -0.00066627 0
1.91029e-05 -0.00175479 0
3.18302e-05 -0.000664927 0
1.66571e-05 -0.00175487 0
2.42225e-05 -0.000668738 0
1.9415e-05 -0.00175394 0
3.08376e-05 -0.00066627 0
1.91029e-05 -0.00175479 0
1.27476e-05 -0.000669561 0
1.78317e-05 -0.001752 0
2.42225e-05 -0.000668738 0
1.9415e-05 -0.00175394 0
4.1118e-06 -0.000668744 0
1.38141e-05 -0.00174799 0
1.27476e-05 -0.000669561 0
1.78317e-05 -0.001752 0
-4.84332e-07 -0.00066707 0
5.78394e-06 -0.00174553 0
4.1118e-06 -0.000668744 0
1.38141e-05 -0.00174799 0
-1.95511e-06 -0.000667406 0
-4.62231e-07 -0.00174174 0
-4.84332e-07 -0.00066707 0
5.78394e-06 -0.00174553 0
-6.23136e-06 -0.000667237 0
-2.84315e-06 -0.00174227 0
-1.95511e-06 -0.000667406 0
-4.62231e-07 -0.00174174 0
-6.6536e-06 -0.000667072 0
-6.51669e-06 -0.00174079 0
-6.23136e-06 -0.000667237 0
-2.84315e-06 -0.00174227 0
-4.39848e-06 -0.000668284 0
-9.38718e-06 -0.00173749 0
-6.6536e-06 -0.000667072 0
-6.51669e-06 -0.00174079 0
-8.64575e-06 -0.000671654 0
-1.19653e-05 -0.00173271 0
-4.39848e-06 -0.000668284 0
-9.38718e-06 -0.00173749 0
-1.71072e-05 -0.000675429 0
-1.08162e-05 -0.00172611 0
-8.64575e-06 -0.000671654 0
-1.19653e-05 -0.00173271 0
-2.22534e-05 -0.00067395 0
-8.4925e-06 -0.00172389 0
-1.71072e-05 -0.000675429 0
-1.08162e-05 -0.00172611 0
-2.32202e-05 -0.000671107 0
-8.84599e-06 -0.00172338 0
-2.22534e-05 -0.00067395 0
-8.4925e-06 -0.00172389 0
-2.26876e-05 -0.000667341 0
-7.71179e-06 -0.00172497 0
-2.32202e-05 -0.000671107 0
-8.84599e-06 -0.00172338 0
-1.9376e-05 -0.000662688 0
-4.67362e-06 -0.0017276 0
-2.26876e-05 -0.000667341 0
-7.71179e-06 -0.00172497 0
-1.28893e-05 -0.000658291 0
-3.18195e-06 -0.00173053 0
-1.9376e-05 -0.000662688 0
-4.67362e-06 -0.0017276 0
-3.08924e-06 -0.000657142 0
1.46098e-07 -0.00172959 0
-1.28893e-05 -0.000658291 0
-3.18195e-06 -0.00173053 0
5.23795e-06 -0.000657265 0
7.33634e-06 -0.00173007 0
-3.08924e-06 -0.000657142 0
1.46098e-07 -0.00172959 0
1.9017e-05 -0.000657308 0
1.68404e-05 -0.00172871 0
5.23795e-06 -0.000657265 0
7.33634e-06 -0.00173007 0
3.12667e-05 -0.000658489 0
1.69851e-05 -0.00172892 0
1.9017e-05 -0.000657308 0
1.68404e-05 -0.00172871 0
3.44948e-05 -0.000661964 0
1.57828e-05 -0.00172675 0
3.12667e-05 -0.000658489 0
1.69851e-05 -0.00172892 0
2.43739e-05 -0.000666376 0
4.99117e-06 -0.00172233 0
3.44948e-05 -0.000661964 0
1.57828e-05 -0.00172675 0
1.60876e-05 -0.000672204 0
-5.56851e-06 -0.00171607 0
2.43739e-05 -0.000666376 0
4.99117e-06 -0.00172233 0
1.60876e-05 -0.000672204 0
-1.34445e-05 -0.00067794 0
-5.56851e-06 -0.00171607 0
-2.46259e-05 -0.00170911 0
-3.00099e-05 -0.000677039 0
-2.03728e-05 -0.00171372 0
-1.34445e-05 -0.00067794 0
-2.46259e-05 -0.00170911 0
-6.19997e-05 -0.000672169 0
-3.24145e-05 -0.00172094 0
-3.00099e-05 -0.000677039 0
-2.03728e-05 -0.00171372 0
-4.45316e-05 -0.000664628 0
-7.68993e-06 -0.00172336 0
-6.19997e-05 -0.000672169 0
-3.24145e-05 -0.00172094 0
-6.44638e-05 -0.000656948 0
-3.04749e-05 -0.00173291 0
-4.45316e-05 -0.000664628 0
-7.68993e-06 -0.00172336 0
-5.83962e-07 -0.000650227 0
2.79521e-05 -0.00173643 0
-6.44638e-05 -0.000656948 0
-3.04749e-05 -0.00173291 0
-5.83962e-07 -0.000650227 0
-4.40597e-05 -0.000641093 0
2.79521e-05 -0.00173643 0
-3.49579e-05 -0.00174844 0
-4.40597e-05 -0.000641093 0
4.2036e-05 -0.000642713 0
-3.49579e-05 -0.00174844 0
2.79287e-05 -0.00173211 0
-0.000166024 -0.000643205 0
-0.000195611 -0.00173384 0
4.2036e-05 -0.000642713 0
2.79287e-05 -0.00173211 0
-0.000221412 -0.000649576 0
-0.000236835 -0.00167455 0
-0.000166024 -0.000643205 0
-0.000195611 -0.00173384 0
-0.00101118 -0.000634372 0
-0.00100299 -0.00163021 0
-0.000221412 -0.000649576 0
-0.000236835 -0.00167455 0
-0.0017395 -0.000637763 0
-0.0016949 -0.00138581 0
-0.00101118 -0.000634372 0
-0.00100299 -0.00163021 0
-0.00435018 -0.000613426 0
-0.0042559 -0.0009697 0
-0.0017395 -0.000637763 0
-0.0016949 -0.00138581 0
-0.00772941 -0.00062884 0
-0.00737543 0.000153738 0
-0.00435018 -0.000613426 0
-0.0042559 -0.0009697 0
-0.0158739 -0.00048979 0
-0.0153029 0.00187778 0
-0.00772941 -0.00062884 0
-0.00737543 0.000153738 0
-0.0272799 -0.000471716 0
-0.0264983 0.00662838 0
-0.0158739 -0.00048979 0
-0.0153029 0.00187778 0
-0.045927 -0.00109253 0
-0.0511173 0.00537544 0
-0.0272799 -0.000471716 0
-0.0264983 0.00662838 0
-0.0523611 -0.000935149 0
-0.0619688 -0.0206174 0
-0.045927 -0.00109253 0
-0.0511173 0.00537544 0
0.00222474 -0.00209856 0
0.00469656 -0.0313294 0
0.000234364 -0.00167861 0
-0.000348178 -0.0342767 0
1.29419e-05 -0.000377179 0
-2.51973e-05 -0.000831589 0
1.84429e-05 -0.000365397 0
-2.52929e-05 -0.000831622 0
1.29419e-05 -0.000377179 0
2.84474e-06 -0.000392232 0
-2.51973e-05 -0.000831589 0
-1.83282e-05 -0.000824373 0
-2.20982e-06 -0.000394322 0
-1.31977e-05 -0.000828945 0
2.84474e-06 -0.000392232 0
-1.83282e-05 -0.000824373 0
-2.20982e-06 -0.000394322 0
2.64684e-06 -0.000401001 0
-1.31977e-05 -0.000828945 0
-1.18588e-05 -0.000826436 0
2.64684e-06 -0.000401001 0
5.74397e-06 -0.000401631 0
-1.18588e-05 -0.000826436 0
-5.83065e-06 -0.000831912 0
5.74397e-06 -0.000401631 0
9.1243e-06 -0.000404872 0
-5.83065e-06 -0.000831912 0
-1.64609e-06 -0.000833454 0
9.1243e-06 -0.000404872 0
1.19388e-05 -0.000403848 0
-1.64609e-06 -0.000833454 0
5.73697e-07 -0.000839488 0
1.19388e-05 -0.000403848 0
1.42482e-05 -0.00040669 0
5.73697e-07 -0.000839488 0
-5.36696e-07 -0.000842376 0
1.42482e-05 -0.00040669 0
1.27467e-05 -0.000408145 0
-5.36696e-07 -0.000842376 0
1.43846e-06 -0.000846241 0
1.27467e-05 -0.000408145 0
1.09392e-05 -0.000410299 0
1.43846e-06 -0.000846241 0
2.3277e-06 -0.000848356 0
1.09392e-05 -0.000410299 0
9.10933e-06 -0.000411051 0
2.3277e-06 -0.000848356 0
3.45485e-06 -0.000850514 0
9.10933e-06 -0.000411051 0
7.61452e-06 -0.000412212 0
3.45485e-06 -0.000850514 0
3.85209e-06 -0.000851431 0
7.61452e-06 -0.000412212 0
6.37774e-06 -0.000412345 0
3.85209e-06 -0.000851431 0
4.79595e-06 -0.000852422 0
6.37774e-06 -0.000412345 0
5.60613e-06 -0.000412599 0
4.79595e-06 -0.000852422 0
4.72095e-06 -0.000852911 0
5.60613e-06 -0.000412599 0
5.69411e-06 -0.000412585 0
4.72095e-06 -0.000852911 0
4.60424e-06 -0.000853674 0
5.69411e-06 -0.000412585 0
7.42351e-06 -0.000412707 0
4.60424e-06 -0.000853674 0
3.27561e-06 -0.000854918 0
7.42351e-06 -0.000412707 0
7.75007e-06 -0.000413336 0
3.27561e-06 -0.000854918 0
2.12842e-06 -0.000856149 0
7.75007e-06 -0.000413336 0
7.53178e-06 -0.000414149 0
2.12842e-06 -0.000856149 0
2.58747e-06 -0.000857774 0
7.53178e-06 -0.000414149 0
7.19983e-06 -0.000415014 0
2.58747e-06 -0.000857774 0
3.03509e-06 -0.0008594 0
7.19983e-06 -0.000415014 0
5.77389e-06 -0.000415666 0
3.03509e-06 -0.0008594 0
3.13081e-06 -0.000860717 0
5.77389e-06 -0.000415666 0
4.89255e-06 -0.000415895 0
3.13081e-06 -0.000860717 0
2.83226e-06 -0.000862071 0
4.89255e-06 -0.000415895 0
4.31968e-06 -0.000416266 0
2.83226e-06 -0.000862071 0
2.56001e-06 -0.000862604 0
4.31968e-06 -0.000416266 0
3.88602e-06 -0.000416219 0
2.56001e-06 -0.000862604 0
2.38523e-06 -0.000862829 0
3.88602e-06 -0.000416219 0
3.51855e-06 -0.000416109 0
2.38523e-06 -0.000862829 0
1.67105e-06 -0.000862912 0
0.070155 -0.069765 0
0.0511804 -0.0501917 0
0.0775423 -0.064185 0
0.0558218 -0.0411636 0
0.0314066 -0.0311201 0
0.0356891 -0.0228845 0
0.0511804 -0.0501917 0
0.0558218 -0.0411636 0
0.0314066 -0.0311201 0
0.0187481 -0.0189026 0
0.0356891 -0.0228845 0
0.0199313 -0.0149597 0
0.0187481 -0.0189026 0
0.0104589 -0.0108134 0
0.0199313 -0.0149597 0
0.0112167 -0.00897623 0
0.00579863 -0.00626533 0
0.00567001 -0.00553264 0
0.0104589 -0.0108134 0
0.0112167 -0.00897623 0
0.00299676 -0.00350438 0
0.00282984 -0.00329567 0
0.00579863 -0.00626533 0
0.00567001 -0.00553264 0
0.00299676 -0.00350438 0
0.0014787 -0.00200467 0
0.00282984 -0.00329567 0
0.00106876 -0.0020641 0
0.0014787 -0.00200467 0
0.000670249 -0.00119927 0
0.00106876 -0.0020641 0
0.000276166 -0.00137184 0
0.000231303 -0.000760276 0
-0.00022495 -0.000974561 0
0.000670249 -0.00119927 0
0.000276166 -0.00137184 0
0.000231303 -0.000760276 0
3.64224e-05 -0.000569435 0
-0.00022495 -0.000974561 0
-0.00039443 -0.000797755 0
3.64224e-05 -0.000569435 0
-8.56439e-05 -0.000439175 0
-0.00039443 -0.000797755 0
-0.000519836 -0.000682949 0
-8.56439e-05 -0.000439175 0
-0.000117067 -0.000402605 0
-0.000519836 -0.000682949 0
-0.000540914 -0.000645474 0
-0.000117067 -0.000402605 0
-0.000152028 -0.000358945 0
-0.000540914 -0.000645474 0
-0.000568974 -0.000603709 0
-0.000151357 -0.000352664 0
-0.000562163 -0.000587128 0
-0.000152028 -0.000358945 0
-0.000568974 -0.000603709 0
-0.000165789 -0.000337278 0
-0.000564021 -0.000559273 0
-0.000151357 -0.000352664 0
-0.000562163 -0.000587128 0
-0.000165789 -0.000337278 0
-0.000168008 -0.000332197 0
-0.000564021 -0.000559273 0
-0.000553645 -0.000545774 0
-0.000168008 -0.000332197 0
-0.000172905 -0.000325115 0
-0.000553645 -0.000545774 0
-0.000546632 -0.000529889 0
-0.000172905 -0.000325115 0
-0.000173101 -0.000319868 0
-0.000546632 -0.000529889 0
-0.000537877 -0.000523016 0
-0.000173101 -0.000319868 0
-0.000167372 -0.000319073 0
-0.000537877 -0.000523016 0
-0.000530385 -0.000518237 0
-0.000167372 -0.000319073 0
-0.000165209 -0.000315897 0
-0.000530385 -0.000518237 0
-0.000522601 -0.000514018 0
-0.000165209 -0.000315897 0
-0.000151015 -0.000323033 0
-0.000522601 -0.000514018 0
-0.00050953 -0.000512824 0
-0.000151015 -0.000323033 0
-0.00015226 -0.000320281 0
-0.00050953 -0.000512824 0
-0.000504101 -0.000513885 0
-0.000135769 -0.00032315 0
-0.000487138 -0.000528449 0
-0.00015226 -0.000320281 0
-0.000504101 -0.000513885 0
-0.000135224 -0.000314618 0
-0.000505448 -0.000522962 0
-0.000135769 -0.00032315 0
-0.000487138 -0.000528449 0
-0.000135224 -0.000314618 0
-0.000118388 -0.000332168 0
-0.000505448 -0.000522962 0
-0.000491428 -0.000521181 0
-0.000134062 -0.000329309 0
-0.000505377 -0.000495193 0
-0.000118388 -0.000332168 0
-0.000491428 -0.000521181 0
-0.000118917 -0.000372539 0
-0.000438176 -0.000503204 0
-0.000134062 -0.000329309 0
-0.000505377 -0.000495193 0
-0.000118917 -0.000372539 0
-0.000149481 -0.000341412 0
-0.000438176 -0.000503204 0
-0.000434255 -0.000518607 0
-7.42415e-05 -0.000400204 0
-0.000376075 -0.0005883 0
-0.000149481 -0.000341412 0
-0.000434255 -0.000518607 0
-7.42415e-05 -0.000400204 0
-4.92224e-05 -0.000424368 0
-0.000376075 -0.0005883 0
-0.000411862 -0.000601888 0
-4.92224e-05 -0.000424368 0
7.57735e-05 -0.000572431 0
-0.000411862 -0.000601888 0
-0.000265986 -0.000738203 0
7.57735e-05 -0.000572431 0
6.33053e-05 -0.000562169 0
-0.000265986 -0.000738203 0
-0.00026087 -0.00069185 0
6.33053e-05 -0.000562169 0
2.90982e-05 -0.000506476 0
-0.00026087 -0.00069185 0
4.68869e-05 -0.000964756 0
2.90982e-05 -0.000506476 0
4.21506e-05 -0.000354306 0
4.68869e-05 -0.000964756 0
-0.000112219 -0.000495713 0
4.21506e-05 -0.000354306 0
4.18494e-05 -0.000416428 0
-0.000112219 -0.000495713 0
-0.000161599 -0.000864602 0
4.18494e-05 -0.000416428 0
0.000139346 -0.000285017 0
-0.000161599 -0.000864602 0
2.99366e-05 -0.000746689 0
0.000139346 -0.000285017 0
9.08474e-05 -0.000368039 0
2.99366e-05 -0.000746689 0
-0.000294043 -0.000844494 0
9.08474e-05 -0.000368039 0
1.26365e-05 -0.000436036 0
-0.000294043 -0.000844494 0
-3.47519e-06 -0.000799118 0
1.26365e-05 -0.000436036 0
-0.000170395 -0.000387022 0
-3.47519e-06 -0.000799118 0
-6.92258e-05 -0.000943154 0
2.38523e-06 -0.000862829 0
1.67105e-06 -0.000862912 0
1.58114e-06 -0.000469373 0
7.74045e-07 -0.000470894 0
1.58114e-06 -0.000469373 0
7.74045e-07 -0.000470894 0
5.4536e-07 -0.000775108 0
-1.5882e-07 -0.000775212 0
5.4536e-07 -0.000775108 0
-1.5882e-07 -0.000775212 0
-8.33801e-07 -0.000409109 0
-3.59553e-07 -0.000409357 0
-8.33801e-07 -0.000409109 0
-3.59553e-07 -0.000409357 0
-5.59608e-07 -0.000566537 0
-1.44358e-06 -0.000567043 0
-5.59608e-07 -0.000566537 0
-1.44358e-06 -0.000567043 0
-2.22359e-06 -0.000240004 0
-1.90715e-06 -0.000239955 0
-2.22359e-06 -0.000240004 0
-1.90715e-06 -0.000239955 0
-1.68532e-06 -0.000331019 0
-2.20877e-06 -0.00033154 0
-3.33392e-06 -9.15984e-05 0
-1.68532e-06 -0.000331019 0
-3.20944e-06 -9.18735e-05 0
-2.20877e-06 -0.00033154 0
-3.33392e-06 -9.15984e-05 0
-3.20944e-06 -9.18735e-05 0
-3.2967e-06 -0.000167258 0
-3.12418e-06 -0.000167676 0
-3.2967e-06 -0.000167258 0
-3.12418e-06 -0.000167676 0
-4.63188e-06 -1.56453e-05 0
-4.23098e-06 -1.62825e-05 0
-4.63188e-06 -1.56453e-05 0
-4.23098e-06 -1.62825e-05 0
-5.28333e-06 -8.15655e-05 0
-4.51229e-06 -8.23235e-05 0
-5.28333e-06 -8.15655e-05 0
-4.51229e-06 -8.23235e-05 0
-7.02318e-06 5.79032e-06 0
-6.17188e-06 4.15552e-06 0
-7.02318e-06 5.79032e-06 0
-6.17188e-06 4.15552e-06 0
-9.14993e-06 -4.42334e-05 0
-9.11417e-06 -4.70835e-05 0
-9.14993e-06 -4.42334e-05 0
-9.11417e-06 -4.70835e-05 0
-1.28228e-05 4.60466e-07 0
-1.47052e-05 -3.99362e-06 0
-1.28228e-05 4.60466e-07 0
-1.47052e-05 -3.99362e-06 0
-1.75783e-05 -2.93113e-05 0
-2.32541e-05 -3.61746e-05 0
-1.75783e-05 -2.93113e-05 0
-2.32541e-05 -3.61746e-05 0
-2.39033e-05 -1.25102e-05 0
-3.64766e-05 -2.10039e-05 0
-2.39033e-05 -1.25102e-05 0
-3.64766e-05 -2.10039e-05 0
-3.01293e-05 -1.70507e-05 0
-5.09557e-05 -2.59582e-05 0
-3.01293e-05 -1.70507e-05 0
-5.09557e-05 -2.59582e-05 0
-3.50545e-05 -1.93302e-05 0
-6.5461e-05 -2.55183e-05 0
-3.50545e-05 -1.93302e-05 0
-6.5461e-05 -2.55183e-05 0
-3.56119e-05 6.14146e-06 0
-7.10023e-05 5.96044e-06 0
-3.56119e-05 6.14146e-06 0
-7.10023e-05 5.96044e-06 0
-3.17616e-05 -2.16274e-05 0
-6.54196e-05 -1.52548e-05 0
-3.17616e-05 -2.16274e-05 0
-6.54196e-05 -1.52548e-05 0
-2.36274e-05 3.11696e-05 0
-4.95184e-05 4.0812e-05 0
-2.36274e-05 3.11696e-05 0
-4.95184e-05 4.0812e-05 0
-1.5206e-05 -4.55024e-05 0
-3.23626e-05 -3.55543e-05 0
-1.5206e-05 -4.55024e-05 0
-3.23626e-05 -3.55543e-05 0
-6.72722e-06 3.67394e-05 0
-1.65477e-05 4.40388e-05 0
-6.72722e-06 3.67394e-05 0
-1.65477e-05 4.40388e-05 0
-2.57968e-06 -0.000121569 0
-7.30242e-06 -0.000116251 0
-2.57968e-06 -0.000121569 0
-7.30242e-06 -0.000116251 0
2.62799e-06 -3.439e-06 0
7.3008e-07 -2.53881e-06 0
2.62799e-06 -3.439e-06 0
7.3008e-07 -2.53881e-06 0
-9.04054e-07 -0.000303992 0
-2.75121e-06 -0.000302658 0
-9.04054e-07 -0.000303992 0
-2.75121e-06 -0.000302658 0
3.56056e-06 -0.000160384 0
3.41139e-06 -0.000159206 0
3.56056e-06 -0.000160384 0
3.41139e-06 -0.000159206 0
-5.31673e-07 -0.000710039 0
-1.61012e-06 -0.000708069 0
-5.31673e-07 -0.000710039 0
-1.61012e-06 -0.000708069 0
5.3601e-06 -0.000509466 0
6.40828e-06 -0.000508927 0
5.3601e-06 -0.000509466 0
6.40828e-06 -0.000508927 0
-4.22388e-06 -0.00132441 0
-3.14337e-06 -0.0013263 0
-4.22388e-06 -0.00132441 0
-3.14337e-06 -0.0013263 0
-4.37965e-06 -0.000815901 0
-3.31942e-06 -0.00081763 0
-4.37965e-06 -0.000815901 0
-3.31942e-06 -0.00081763 0
-9.23469e-06 -0.00175548 0
-6.53813e-06 -0.00175814 0
0.0356891 -0.0228845 0
0.0356802 -0.010109 0
0.0558218 -0.0411636 0
0.0619419 -0.0109764 0
0.0356891 -0.0228845 0
0.0199313 -0.0149597 0
0.0356802 -0.010109 0
0.0194822 -0.00723329 0
0.0199313 -0.0149597 0
0.0112167 -0.00897623 0
0.0194822 -0.00723329 0
0.0112358 -0.00550409 0
0.00567001 -0.00553264 0
0.00576235 -0.00328044 0
0.0112167 -0.00897623 0
0.0112358 -0.00550409 0
0.00282984 -0.00329567 0
0.00307174 -0.00224459 0
0.00567001 -0.00553264 0
0.00576235 -0.00328044 0
0.00282984 -0.00329567 0
0.00106876 -0.0020641 0
0.00307174 -0.00224459 0
0.00131016 -0.00123168 0
0.00106876 -0.0020641 0
0.000276166 -0.00137184 0
0.00131016 -0.00123168 0
0.000555911 -0.000882401 0
-0.00022495 -0.000974561 0
5.80091e-05 -0.000529868 0
0.000276166 -0.00137184 0
0.000555911 -0.000882401 0
-0.00022495 -0.000974561 0
-0.00039443 -0.000797755 0
5.80091e-05 -0.000529868 0
-0.000125028 -0.00045667 0
-0.00039443 -0.000797755 0
-0.000519836 -0.000682949 0
-0.000125028 -0.00045667 0
-0.000248054 -0.00033282 0
-0.000519836 -0.000682949 0
-0.000540914 -0.000645474 0
-0.000248054 -0.00033282 0
-0.000269126 -0.000324007 0
-0.000540914 -0.000645474 0
-0.000568974 -0.000603709 0
-0.000269126 -0.000324007 0
-0.000294006 -0.000276826 0
-0.000562163 -0.000587128 0
-0.00028903 -0.000276247 0
-0.000568974 -0.000603709 0
-0.000294006 -0.000276826 0