# vtk DataFile Version 3.0
#This file was generated by the deal.II library on 2016/12/20 at 10:57:12
ASCII
DATASET UNSTRUCTURED_GRID

POINTS 7564 double
0.12 -0.5 0
0.15 -0.5 0
0.119014 -0.4708 0
0.15 -0.471429 0
0.11755 -0.441479 0
0.119014 -0.4708 0
0.15 -0.442857 0
0.15 -0.471429 0
0.117242 -0.412206 0
0.11755 -0.441479 0
0.15 -0.414286 0
0.15 -0.442857 0
0.118129 -0.383064 0
0.117242 -0.412206 0
0.15 -0.385714 0
0.15 -0.414286 0
0.12021 -0.354337 0
0.118129 -0.383064 0
0.15 -0.357143 0
0.15 -0.385714 0
0.121793 -0.32584 0
0.12021 -0.354337 0
0.15 -0.328571 0
0.15 -0.357143 0
0.122717 -0.296869 0
0.121793 -0.32584 0
0.15 -0.3 0
0.15 -0.328571 0
0.123759 -0.266752 0
0.122717 -0.296869 0
0.153091 -0.267708 0
0.15 -0.3 0
0.18456 -0.26795 0
0.153091 -0.267708 0
0.183333 -0.3 0
0.15 -0.3 0
0.216606 -0.268111 0
0.18456 -0.26795 0
0.216667 -0.3 0
0.183333 -0.3 0
0.24835 -0.26841 0
0.216606 -0.268111 0
0.25 -0.3 0
0.216667 -0.3 0
0.278782 -0.268564 0
0.24835 -0.26841 0
0.279437 -0.298917 0
0.25 -0.3 0
0.279638 -0.328111 0
0.279437 -0.298917 0
0.25 -0.328571 0
0.25 -0.3 0
0.27971 -0.356801 0
0.279638 -0.328111 0
0.25 -0.357143 0
0.25 -0.328571 0
0.279677 -0.385395 0
0.27971 -0.356801 0
0.25 -0.385714 0
0.25 -0.357143 0
0.279641 -0.413938 0
0.279677 -0.385395 0
0.25 -0.414286 0
0.25 -0.385714 0
0.279666 -0.442534 0
0.279641 -0.413938 0
0.25 -0.442857 0
0.25 -0.414286 0
0.279811 -0.471266 0
0.279666 -0.442534 0
0.25 -0.471429 0
0.25 -0.442857 0
0.28 -0.5 0
0.279811 -0.471266 0
0.25 -0.5 0
0.25 -0.471429 0
0.970149 0.5 0
0.970096 0.46978 0
1 0.5 0
1 0.469697 0
0.940299 0.5 0
0.940231 0.46984 0
0.970149 0.5 0
0.970096 0.46978 0
0.910448 0.5 0
0.910371 0.469856 0
0.940299 0.5 0
0.940231 0.46984 0
0.880597 0.5 0
0.880527 0.469909 0
0.910448 0.5 0
0.910371 0.469856 0
0.850746 0.5 0
0.850684 0.469926 0
0.880597 0.5 0
0.880527 0.469909 0
0.820896 0.5 0
0.820842 0.469978 0
0.850746 0.5 0
0.850684 0.469926 0
0.791045 0.5 0
0.791001 0.470016 0
0.820896 0.5 0
0.820842 0.469978 0
0.761194 0.5 0
0.761159 0.470055 0
0.791045 0.5 0
0.791001 0.470016 0
0.731343 0.5 0
0.731316 0.470091 0
0.761194 0.5 0
0.761159 0.470055 0
0.701493 0.5 0
0.701472 0.470118 0
0.731343 0.5 0
0.731316 0.470091 0
0.671642 0.5 0
0.671627 0.470134 0
0.701493 0.5 0
0.701472 0.470118 0
0.641791 0.5 0
0.64178 0.470142 0
0.671642 0.5 0
0.671627 0.470134 0
0.641791 0.5 0
0.61194 0.5 0
0.64178 0.470142 0
0.611934 0.470065 0
0.58209 0.5 0
0.582089 0.470002 0
0.61194 0.5 0
0.611934 0.470065 0
0.552239 0.5 0
0.552248 0.469853 0
0.58209 0.5 0
0.582089 0.470002 0
0.522388 0.5 0
0.522413 0.469718 0
0.552239 0.5 0
0.552248 0.469853 0
0.492537 0.5 0
0.492577 0.469656 0
0.522388 0.5 0
0.522413 0.469718 0
0.462687 0.5 0
0.462743 0.469571 0
0.492537 0.5 0
0.492577 0.469656 0
0.432836 0.5 0
0.432895 0.46963 0
0.462687 0.5 0
0.462743 0.469571 0
0.402985 0.5 0
0.403046 0.469669 0
0.432836 0.5 0
0.432895 0.46963 0
0.373134 0.5 0
0.373191 0.469745 0
0.402985 0.5 0
0.403046 0.469669 0
0.343284 0.5 0
0.343335 0.469723 0
0.373134 0.5 0
0.373191 0.469745 0
0.313433 0.5 0
0.313478 0.469741 0
0.343284 0.5 0
0.343335 0.469723 0
0.283582 0.5 0
0.283622 0.469783 0
0.313433 0.5 0
0.313478 0.469741 0
0.253731 0.5 0
0.253768 0.469742 0
0.283582 0.5 0
0.283622 0.469783 0
0.223881 0.5 0
0.223918 0.469737 0
0.253731 0.5 0
0.253768 0.469742 0
0.19403 0.5 0
0.194064 0.46981 0
0.223881 0.5 0
0.223918 0.469737 0
0.164179 0.5 0
0.16421 0.469881 0
0.19403 0.5 0
0.194064 0.46981 0
0.134328 0.5 0
0.134355 0.46994 0
0.164179 0.5 0
0.16421 0.469881 0
0.104478 0.5 0
0.1045 0.469997 0
0.134328 0.5 0
0.134355 0.46994 0
0.074627 0.5 0
0.074645 0.470051 0
0.104478 0.5 0
0.1045 0.469997 0
0.044776 0.5 0
0.04479 0.470093 0
0.074627 0.5 0
0.074645 0.470051 0
0.014925 0.5 0
0.014935 0.47012 0
0.044776 0.5 0
0.04479 0.470093 0
-0.014925 0.5 0
-0.014918 0.470135 0
0.014925 0.5 0
0.014935 0.47012 0
-0.044776 0.5 0
-0.044771 0.470143 0
-0.014925 0.5 0
-0.014918 0.470135 0
-0.074627 0.5 0
-0.074623 0.470146 0
-0.044776 0.5 0
-0.044771 0.470143 0
-0.104478 0.5 0
-0.104496 0.469979 0
-0.074627 0.5 0
-0.074623 0.470146 0
-0.134328 0.5 0
-0.134359 0.469935 0
-0.104478 0.5 0
-0.104496 0.469979 0
-0.164179 0.5 0
-0.164225 0.469839 0
-0.134328 0.5 0
-0.134359 0.469935 0
-0.164179 0.5 0
-0.19403 0.5 0
-0.164225 0.469839 0
-0.194083 0.469797 0
-0.223881 0.5 0
-0.22394 0.469753 0
-0.19403 0.5 0
-0.194083 0.469797 0
-0.253731 0.5 0
-0.253798 0.469819 0
-0.223881 0.5 0
-0.22394 0.469753 0
-0.283582 0.5 0
-0.283647 0.470019 0
-0.253731 0.5 0
-0.253798 0.469819 0
-0.313433 0.5 0
-0.313491 0.470151 0
-0.283582 0.5 0
-0.283647 0.470019 0
-0.343284 0.5 0
-0.343348 0.470381 0
-0.313433 0.5 0
-0.313491 0.470151 0
-0.343284 0.5 0
-0.373134 0.5 0
-0.343348 0.470381 0
-0.373195 0.470395 0
-0.373134 0.5 0
-0.402985 0.5 0
-0.373195 0.470395 0
-0.403049 0.470404 0
-0.432836 0.5 0
-0.432937 0.470297 0
-0.402985 0.5 0
-0.403049 0.470404 0
-0.462687 0.5 0
-0.462848 0.469995 0
-0.432836 0.5 0
-0.432937 0.470297 0
-0.492537 0.5 0
-0.492807 0.469765 0
-0.462687 0.5 0
-0.462848 0.469995 0
-0.522388 0.5 0
-0.52276 0.46958 0
-0.492537 0.5 0
-0.492807 0.469765 0
-0.552239 0.5 0
-0.55273 0.469652 0
-0.522388 0.5 0
-0.52276 0.46958 0
-0.58209 0.5 0
-0.582662 0.469731 0
-0.552239 0.5 0
-0.55273 0.469652 0
-0.61194 0.5 0
-0.612594 0.469999 0
-0.58209 0.5 0
-0.582662 0.469731 0
-0.641791 0.5 0
-0.642647 0.470419 0
-0.61194 0.5 0
-0.612594 0.469999 0
-0.671642 0.5 0
-0.672638 0.470543 0
-0.641791 0.5 0
-0.642647 0.470419 0
-0.701493 0.5 0
-0.702968 0.4698 0
-0.671642 0.5 0
-0.672638 0.470543 0
-0.701493 0.5 0
-0.731343 0.5 0
-0.702968 0.4698 0
-0.733232 0.468149 0
-0.731343 0.5 0
-0.761194 0.5 0
-0.733232 0.468149 0
-0.765399 0.466448 0
-0.791045 0.5 0
-0.795702 0.469563 0
-0.761194 0.5 0
-0.765399 0.466448 0
-0.820896 0.5 0
-0.822797 0.47207 0
-0.791045 0.5 0
-0.795702 0.469563 0
0.31 -0.5 0
0.309694 -0.471123 0
0.28 -0.5 0
0.279811 -0.471266 0
0.31 -0.5 0
0.34 -0.5 0
0.309694 -0.471123 0
0.339686 -0.471033 0
0.37 -0.5 0
0.369721 -0.471055 0
0.34 -0.5 0
0.339686 -0.471033 0
0.37 -0.5 0
0.4 -0.5 0
0.369721 -0.471055 0
0.399756 -0.470957 0
0.4 -0.5 0
0.43 -0.5 0
0.399756 -0.470957 0
0.429805 -0.470822 0
0.43 -0.5 0
0.46 -0.5 0
0.429805 -0.470822 0
0.459835 -0.470712 0
0.46 -0.5 0
0.49 -0.5 0
0.459835 -0.470712 0
0.489873 -0.470554 0
0.49 -0.5 0
0.52 -0.5 0
0.489873 -0.470554 0
0.519906 -0.470379 0
0.52 -0.5 0
0.55 -0.5 0
0.519906 -0.470379 0
0.54993 -0.470248 0
0.55 -0.5 0
0.58 -0.5 0
0.54993 -0.470248 0
0.579948 -0.470155 0
0.58 -0.5 0
0.61 -0.5 0
0.579948 -0.470155 0
0.609962 -0.470091 0
0.61 -0.5 0
0.64 -0.5 0
0.609962 -0.470091 0
0.639972 -0.47005 0
0.64 -0.5 0
0.67 -0.5 0
0.639972 -0.47005 0
0.66998 -0.470026 0
0.67 -0.5 0
0.7 -0.5 0
0.66998 -0.470026 0
0.699986 -0.470013 0
0.7 -0.5 0
0.73 -0.5 0
0.699986 -0.470013 0
0.72999 -0.470006 0
0.73 -0.5 0
0.76 -0.5 0
0.72999 -0.470006 0
0.759994 -0.470003 0
0.76 -0.5 0
0.79 -0.5 0
0.759994 -0.470003 0
0.78998 -0.469916 0
0.79 -0.5 0
0.82 -0.5 0
0.78998 -0.469916 0
0.819956 -0.469877 0
0.82 -0.5 0
0.85 -0.5 0
0.819956 -0.469877 0
0.849929 -0.469833 0
0.85 -0.5 0
0.88 -0.5 0
0.849929 -0.469833 0
0.879924 -0.469805 0
0.88 -0.5 0
0.91 -0.5 0
0.879924 -0.469805 0
0.909913 -0.469792 0
0.91 -0.5 0
0.94 -0.5 0
0.909913 -0.469792 0
0.939922 -0.469775 0
0.94 -0.5 0
0.97 -0.5 0
0.939922 -0.469775 0
0.969956 -0.46974 0
0.97 -0.5 0
1 -0.5 0
0.969956 -0.46974 0
1 -0.469697 0
-0.489362 -0.010638 0
-0.468085 -0.031915 0
-0.467791 0.011178 0
-0.446536 -0.010172 0
-0.446809 -0.053191 0
-0.42524 -0.031466 0
-0.468085 -0.031915 0
-0.446536 -0.010172 0
-0.425532 -0.074468 0
-0.404012 -0.052824 0
-0.446809 -0.053191 0
-0.42524 -0.031466 0
-0.425532 -0.074468 0
-0.404255 -0.095745 0
-0.404012 -0.052824 0
-0.382783 -0.074175 0
-0.404255 -0.095745 0
-0.382979 -0.117021 0
-0.382783 -0.074175 0
-0.361545 -0.095511 0
-0.382979 -0.117021 0
-0.361702 -0.138298 0
-0.361545 -0.095511 0
-0.340288 -0.116831 0
-0.361702 -0.138298 0
-0.340426 -0.159574 0
-0.340288 -0.116831 0
-0.319034 -0.138159 0
-0.340426 -0.159574 0
-0.319149 -0.180851 0
-0.319034 -0.138159 0
-0.297766 -0.159484 0
-0.319149 -0.180851 0
-0.297872 -0.202128 0
-0.297766 -0.159484 0
-0.276489 -0.180797 0
-0.297872 -0.202128 0
-0.276596 -0.223404 0
-0.276489 -0.180797 0
-0.255087 -0.202105 0
-0.255319 -0.244681 0
-0.233674 -0.223466 0
-0.276596 -0.223404 0
-0.255087 -0.202105 0
-0.234043 -0.265957 0
-0.212119 -0.244916 0
-0.255319 -0.244681 0
-0.233674 -0.223466 0
-0.234043 -0.265957 0
-0.212766 -0.287234 0
-0.212119 -0.244916 0
-0.190657 -0.266392 0
-0.191489 -0.308511 0
-0.169261 -0.287934 0
-0.212766 -0.287234 0
-0.190657 -0.266392 0
-0.170213 -0.329787 0
-0.147854 -0.309624 0
-0.191489 -0.308511 0
-0.169261 -0.287934 0
-0.170213 -0.329787 0
-0.148936 -0.351064 0
-0.147854 -0.309624 0
-0.126431 -0.331364 0
-0.12766 -0.37234 0
-0.105256 -0.353368 0
-0.148936 -0.351064 0
-0.126431 -0.331364 0
-0.12766 -0.37234 0
-0.106383 -0.393617 0
-0.105256 -0.353368 0
-0.083924 -0.375263 0
-0.106383 -0.393617 0
-0.085106 -0.414894 0
-0.083924 -0.375263 0
-0.062097 -0.396824 0
-0.085106 -0.414894 0
-0.06383 -0.43617 0
-0.062097 -0.396824 0
-0.040132 -0.418076 0
-0.06383 -0.43617 0
-0.042553 -0.457447 0
-0.040132 -0.418076 0
-0.019646 -0.439891 0
-0.042553 -0.457447 0
-0.021277 -0.478723 0
-0.019646 -0.439891 0
-0.002475 -0.461393 0
-0.021277 -0.478723 0
0 -0.5 0
-0.002475 -0.461393 0
0.009599 -0.478226 0
0 -0.5 0
0.03 -0.5 0
0.009599 -0.478226 0
0.029922 -0.474701 0
0.03 -0.5 0
0.06 -0.5 0
0.029922 -0.474701 0
0.057397 -0.471689 0
0.06 -0.5 0
0.09 -0.5 0
0.057397 -0.471689 0
0.08796 -0.470463 0
0.09 -0.5 0
0.12 -0.5 0
0.08796 -0.470463 0
0.119014 -0.4708 0
0.969956 -0.46974 0
1 -0.469697 0
0.969923 -0.439465 0
1 -0.439394 0
0.969923 -0.439465 0
1 -0.439394 0
0.969894 -0.409159 0
1 -0.409091 0
0.969894 -0.409159 0
1 -0.409091 0
0.969889 -0.37886 0
1 -0.378788 0
0.969889 -0.37886 0
1 -0.378788 0
0.969858 -0.348548 0
1 -0.348485 0
0.969858 -0.348548 0
1 -0.348485 0
0.969843 -0.318237 0
[...]
POINT_DATA 7564
VECTORS momentum double
0.00149849 -0.000372626 0
0.000124121 -0.000328346 0
0.00172852 -0.00164202 0
0.000130812 -0.00161178 0
0.00165014 -0.00180989 0
0.00172852 -0.00164202 0
0.000117777 -0.00154524 0
0.000130812 -0.00161178 0
0.00219723 -0.00265222 0
0.00165014 -0.00180989 0
0.000138952 -0.00279574 0
0.000117777 -0.00154524 0
0.00240936 -0.00225256 0
0.00219723 -0.00265222 0
-7.70164e-05 -0.00182295 0
0.000138952 -0.00279574 0
0.00318103 -0.00209984 0
0.00240936 -0.00225256 0
0.000449938 -0.00251842 0
-7.70164e-05 -0.00182295 0
0.00366238 -0.000331576 0
0.00318103 -0.00209984 0
-0.00149658 0.000750925 0
0.000449938 -0.00251842 0
0.00790038 0.00170636 0
0.00366238 -0.000331576 0
0.00598508 0.0019296 0
-0.00149658 0.000750925 0
0.0116884 -0.000528515 0
0.00790038 0.00170636 0
0.0139015 -0.000243405 0
0.00598508 0.0019296 0
0.0113622 -0.00451126 0
0.0139015 -0.000243405 0
0.011828 -0.00237747 0
0.00598508 0.0019296 0
0.0111307 -0.000319591 0
0.0113622 -0.00451126 0
0.0112892 0.00162308 0
0.011828 -0.00237747 0
0.0134316 -0.00497689 0
0.0111307 -0.000319591 0
0.0059306 -0.00467424 0
0.0112892 0.00162308 0
0.00867697 -0.00614946 0
0.0134316 -0.00497689 0
0.00488185 -0.00974476 0
0.0059306 -0.00467424 0
0.000123744 -0.00602113 0
0.00488185 -0.00974476 0
-0.00191803 -0.00728803 0
0.0059306 -0.00467424 0
0.00108727 -0.00470794 0
0.000123744 -0.00602113 0
0.000564206 -0.00339219 0
-0.00191803 -0.00728803 0
0.000150663 -0.00331841 0
0.00108727 -0.00470794 0
-0.00024706 -0.00413683 0
0.000564206 -0.00339219 0
0.000507234 -0.00261954 0
0.000150663 -0.00331841 0
0.000126063 -0.00219227 0
-0.00024706 -0.00413683 0
8.39916e-05 -0.00175362 0
0.000507234 -0.00261954 0
-6.44945e-05 -0.00203967 0
0.000126063 -0.00219227 0
0.00024653 -0.00131659 0
8.39916e-05 -0.00175362 0
4.16233e-05 -0.00117804 0
-6.44945e-05 -0.00203967 0
0.000118692 -0.000504469 0
0.00024653 -0.00131659 0
-2.20374e-05 -0.000604406 0
4.16233e-05 -0.00117804 0
-0.00027973 -0.000648682 0
-0.000272089 -0.00176906 0
-0.000262632 -0.000648884 0
-0.00025219 -0.00177033 0
-0.00029612 -0.000649202 0
-0.000291615 -0.00177012 0
-0.00027973 -0.000648682 0
-0.000272089 -0.00176906 0
-0.00030698 -0.000648825 0
-0.000302276 -0.00177215 0
-0.00029612 -0.000649202 0
-0.000291615 -0.00177012 0
-0.000316149 -0.000647962 0
-0.000312291 -0.00177342 0
-0.00030698 -0.000648825 0
-0.000302276 -0.00177215 0
-0.0003197 -0.00064724 0
-0.000315362 -0.00177483 0
-0.000316149 -0.000647962 0
-0.000312291 -0.00177342 0
-0.000320423 -0.000645807 0
-0.000316034 -0.00177565 0
-0.0003197 -0.00064724 0
-0.000315362 -0.00177483 0
-0.000314064 -0.000645021 0
-0.000310435 -0.00177659 0
-0.000320423 -0.000645807 0
-0.000316034 -0.00177565 0
-0.000303298 -0.00064341 0
-0.000299791 -0.00177806 0
-0.000314064 -0.000645021 0
-0.000310435 -0.00177659 0
-0.000283134 -0.0006421 0
-0.000282753 -0.00177935 0
-0.000303298 -0.00064341 0
-0.000299791 -0.00177806 0
-0.00025552 -0.000641196 0
-0.00025702 -0.00178055 0
-0.000283134 -0.0006421 0
-0.000282753 -0.00177935 0
-0.000215701 -0.000639779 0
-0.000221181 -0.00178053 0
-0.00025552 -0.000641196 0
-0.00025702 -0.00178055 0
-0.000163254 -0.000638838 0
-0.000176923 -0.00178012 0
-0.000215701 -0.000639779 0
-0.000221181 -0.00178053 0
-0.000163254 -0.000638838 0
-9.90985e-05 -0.000639078 0
-0.000176923 -0.00178012 0
-0.000116374 -0.00177854 0
-1.67943e-05 -0.000639044 0
-3.92049e-05 -0.00177611 0
-9.90985e-05 -0.000639078 0
-0.000116374 -0.00177854 0
8.52209e-05 -0.000641221 0
6.16361e-05 -0.00176957 0
-1.67943e-05 -0.000639044 0
-3.92049e-05 -0.00177611 0
0.000210078 -0.000643181 0
0.000197543 -0.00175642 0
8.52209e-05 -0.000641221 0
6.16361e-05 -0.00176957 0
0.000373856 -0.000643628 0
0.000370289 -0.00173518 0
0.000210078 -0.000643181 0
0.000197543 -0.00175642 0
0.000575543 -0.000644621 0
0.000587048 -0.00170762 0
0.000373856 -0.000643628 0
0.000370289 -0.00173518 0
0.000826904 -0.000644159 0
0.000858085 -0.00167515 0
0.000575543 -0.000644621 0
0.000587048 -0.00170762 0
0.00114818 -0.000642151 0
0.00119533 -0.0016384 0
0.000826904 -0.000644159 0
0.000858085 -0.00167515 0
0.00155374 -0.000639295 0
0.00160976 -0.00160036 0
0.00114818 -0.000642151 0
0.00119533 -0.0016384 0
0.00205144 -0.000638162 0
0.00211613 -0.00155626 0
0.00155374 -0.000639295 0
0.00160976 -0.00160036 0
0.0026408 -0.000636781 0
0.00272175 -0.00151032 0
0.00205144 -0.000638162 0
0.00211613 -0.00155626 0
0.00332529 -0.000635905 0
0.00341753 -0.00145499 0
0.0026408 -0.000636781 0
0.00272175 -0.00151032 0
0.00409445 -0.000635913 0
0.00419846 -0.00138954 0
0.00332529 -0.000635905 0
0.00341753 -0.00145499 0
0.00491387 -0.000638154 0
0.00503919 -0.00131612 0
0.00409445 -0.000635913 0
0.00419846 -0.00138954 0
0.00576279 -0.000640801 0
0.00591863 -0.00123894 0
0.00491387 -0.000638154 0
0.00503919 -0.00131612 0
0.0066007 -0.000638605 0
0.00678537 -0.00116202 0
0.00576279 -0.000640801 0
0.00591863 -0.00123894 0
0.00738534 -0.000634548 0
0.00759133 -0.00108188 0
0.0066007 -0.000638605 0
0.00678537 -0.00116202 0
0.00803531 -0.00062904 0
0.00825911 -0.000996441 0
0.00738534 -0.000634548 0
0.00759133 -0.00108188 0
0.00849629 -0.000622366 0
0.00873191 -0.000901906 0
0.00803531 -0.00062904 0
0.00825911 -0.000996441 0
0.00866439 -0.000615557 0
0.00890203 -0.000793288 0
0.00849629 -0.000622366 0
0.00873191 -0.000901906 0
0.00848858 -0.00061121 0
0.00872227 -0.000658976 0
0.00866439 -0.000615557 0
0.00890203 -0.000793288 0
0.0078412 -0.000606723 0
0.00807143 -0.000494767 0
0.00848858 -0.00061121 0
0.00872227 -0.000658976 0
0.00669602 -0.000600636 0
0.00691296 -0.000278853 0
0.0078412 -0.000606723 0
0.00807143 -0.000494767 0
0.00489689 -0.000593386 0
0.00508818 -2.58934e-06 0
0.00669602 -0.000600636 0
0.00691296 -0.000278853 0
0.00242903 -0.0005855 0
0.00259872 0.000365903 0
0.00489689 -0.000593386 0
0.00508818 -2.58934e-06 0
-0.00088499 -0.000576218 0
-0.000744077 0.000817138 0
0.00242903 -0.0005855 0
0.00259872 0.000365903 0
-0.00500913 -0.000566107 0
-0.00490479 0.00137875 0
-0.00088499 -0.000576218 0
-0.000744077 0.000817138 0
-0.00500913 -0.000566107 0
-0.0101747 -0.000552303 0
-0.00490479 0.00137875 0
-0.0101098 0.00203683 0
-0.0163099 -0.00053199 0
-0.0162873 0.00280621 0
-0.0101747 -0.000552303 0
-0.0101098 0.00203683 0
-0.0237045 -0.000505158 0
-0.0237541 0.00368819 0
-0.0163099 -0.00053199 0
-0.0162873 0.00280621 0
-0.0323069 -0.00047088 0
-0.0324551 0.00469519 0
-0.0237045 -0.000505158 0
-0.0237541 0.00368819 0
-0.0424954 -0.000429864 0
-0.0427967 0.00580594 0
-0.0323069 -0.00047088 0
-0.0324551 0.00469519 0
-0.054182 -0.000392624 0
-0.0546966 0.00702633 0
-0.0424954 -0.000429864 0
-0.0427967 0.00580594 0
-0.054182 -0.000392624 0
-0.0677873 -0.000344516 0
-0.0546966 0.00702633 0
-0.0686058 0.00838175 0
-0.0677873 -0.000344516 0
-0.0832072 -0.000318994 0
-0.0686058 0.00838175 0
-0.0843514 0.00983822 0
-0.100721 -0.000264378 0
-0.102295 0.0113226 0
-0.0832072 -0.000318994 0
-0.0843514 0.00983822 0
-0.120186 -0.000250024 0
-0.122124 0.0129535 0
-0.100721 -0.000264378 0
-0.102295 0.0113226 0
-0.141449 -0.000164184 0
-0.143984 0.0143335 0
-0.120186 -0.000250024 0
-0.122124 0.0129535 0
-0.164106 -0.000192572 0
-0.167165 0.0154334 0
-0.141449 -0.000164184 0
-0.143984 0.0143335 0
-0.187117 -0.000121343 0
-0.1908 0.0157887 0
-0.164106 -0.000192572 0
-0.167165 0.0154334 0
-0.21002 -0.000192269 0
-0.213999 0.0161258 0
-0.187117 -0.000121343 0
-0.1908 0.0157887 0
-0.231415 -0.000129181 0
-0.235664 0.0165111 0
-0.21002 -0.000192269 0
-0.213999 0.0161258 0
-0.251741 -0.000358782 0
-0.256094 0.0179609 0
-0.231415 -0.000129181 0
-0.235664 0.0165111 0
-0.269869 -9.42582e-05 0
-0.272595 0.0195251 0
-0.251741 -0.000358782 0
-0.256094 0.0179609 0
-0.285508 0.0002618 0
-0.289349 0.0234675 0
-0.269869 -9.42582e-05 0
-0.272595 0.0195251 0
-0.285508 0.0002618 0
-0.300768 0.000599463 0
-0.289349 0.0234675 0
-0.299593 0.0257529 0
-0.300768 0.000599463 0
-0.306504 1.84866e-05 0
-0.299593 0.0257529 0
-0.311917 0.0203322 0
-0.300782 -0.000771503 0
-0.306256 -0.000357534 0
-0.306504 1.84866e-05 0
-0.311917 0.0203322 0
-0.278394 -0.000401012 0
-0.273709 -0.0155361 0
-0.300782 -0.000771503 0
-0.306256 -0.000357534 0
0.000286201 -0.000475907 0
0.000359138 -0.00130506 0
0.000118692 -0.000504469 0
0.00024653 -0.00131659 0
0.000286201 -0.000475907 0
0.000377279 -0.000430622 0
0.000359138 -0.00130506 0
0.000436023 -0.00130372 0
0.00043386 -0.000433585 0
0.000460568 -0.00122516 0
0.000377279 -0.000430622 0
0.000436023 -0.00130372 0
0.00043386 -0.000433585 0
0.000424799 -0.000417945 0
0.000460568 -0.00122516 0
0.000449235 -0.00118315 0
0.000424799 -0.000417945 0
0.000393112 -0.000424694 0
0.000449235 -0.00118315 0
0.000400367 -0.00111901 0
0.000393112 -0.000424694 0
0.000318928 -0.000418283 0
0.000400367 -0.00111901 0
0.000330864 -0.00108692 0
0.000318928 -0.000418283 0
0.000243857 -0.000421196 0
0.000330864 -0.00108692 0
0.000243537 -0.00104911 0
0.000243857 -0.000421196 0
0.000150868 -0.000419598 0
0.000243537 -0.00104911 0
0.000148426 -0.00103082 0
0.000150868 -0.000419598 0
6.38283e-05 -0.000423071 0
0.000148426 -0.00103082 0
5.86968e-05 -0.00100952 0
6.38283e-05 -0.000423071 0
-2.67381e-05 -0.000423107 0
5.86968e-05 -0.00100952 0
-2.83261e-05 -0.00100038 0
-2.67381e-05 -0.000423107 0
-0.000102875 -0.000424809 0
-2.83261e-05 -0.00100038 0
-0.000104218 -0.000989823 0
-0.000102875 -0.000424809 0
-0.00017506 -0.000425035 0
-0.000104218 -0.000989823 0
-0.000173837 -0.000986024 0
-0.00017506 -0.000425035 0
-0.000232099 -0.000425656 0
-0.000173837 -0.000986024 0
-0.000229408 -0.000981451 0
-0.000232099 -0.000425656 0
-0.000283034 -0.000425586 0
-0.000229408 -0.000981451 0
-0.000278772 -0.000980782 0
-0.000283034 -0.000425586 0
-0.000319607 -0.00042586 0
-0.000278772 -0.000980782 0
-0.000315699 -0.000979942 0
-0.000319607 -0.00042586 0
-0.000348843 -0.000425881 0
-0.000315699 -0.000979942 0
-0.00034821 -0.000981751 0
-0.000348843 -0.000425881 0
-0.000368885 -0.000426693 0
-0.00034821 -0.000981751 0
-0.000370209 -0.000982878 0
-0.000368885 -0.000426693 0
-0.000386011 -0.000427526 0
-0.000370209 -0.000982878 0
-0.000386618 -0.000985716 0
-0.000386011 -0.000427526 0
-0.000394695 -0.000428546 0
-0.000386618 -0.000985716 0
-0.000394453 -0.000988624 0
-0.000394695 -0.000428546 0
-0.000401638 -0.000429318 0
-0.000394453 -0.000988624 0
-0.000399789 -0.000992246 0
-0.000401638 -0.000429318 0
-0.000400429 -0.000429684 0
-0.000399789 -0.000992246 0
-0.000398217 -0.000995854 0
-0.000400429 -0.000429684 0
-0.000396981 -0.000430199 0
-0.000398217 -0.000995854 0
-0.000394962 -0.000999172 0
-0.000396981 -0.000430199 0
-0.000387167 -0.00043028 0
-0.000394962 -0.000999172 0
-0.000385641 -0.00100148 0
-0.000387167 -0.00043028 0
-0.00037818 -0.000430231 0
-0.000385641 -0.00100148 0
-0.000377634 -0.00100267 0
0.216703 -0.214091 0
0.14643 -0.141614 0
0.242765 -0.102589 0
0.166329 -0.0983292 0
0.108028 -0.107945 0
0.122324 -0.080633 0
0.14643 -0.141614 0
0.166329 -0.0983292 0
0.0856602 -0.0851434 0
0.0949219 -0.0689038 0
0.108028 -0.107945 0
0.122324 -0.080633 0
0.0856602 -0.0851434 0
0.0698837 -0.0700208 0
0.0949219 -0.0689038 0
0.0762317 -0.0581823 0
0.0698837 -0.0700208 0
0.0588197 -0.0589055 0
0.0762317 -0.0581823 0
0.06315 -0.0506505 0
0.0588197 -0.0589055 0
0.0504008 -0.0506655 0
0.06315 -0.0506505 0
0.0534832 -0.0442601 0
0.0504008 -0.0506655 0
0.0440326 -0.0443026 0
0.0534832 -0.0442601 0
0.0461924 -0.0394059 0
0.0440326 -0.0443026 0
0.0389721 -0.0393062 0
0.0461924 -0.0394059 0
0.0405254 -0.0353097 0
0.0389721 -0.0393062 0
0.0349366 -0.0352807 0
0.0405254 -0.0353097 0
0.0360293 -0.0320181 0
0.0349366 -0.0352807 0
0.0315936 -0.0319651 0
0.0360293 -0.0320181 0
0.0323544 -0.0291958 0
0.0287963 -0.0291678 0
0.0292999 -0.026806 0
0.0315936 -0.0319651 0
0.0323544 -0.0291958 0
0.026342 -0.0267207 0
0.0266259 -0.0246601 0
0.0287963 -0.0291678 0
0.0292999 -0.026806 0
0.026342 -0.0267207 0
0.0241716 -0.0245591 0
0.0266259 -0.0246601 0
0.0242804 -0.0227233 0
0.0221214 -0.0225331 0
0.0220977 -0.0208754 0
0.0241716 -0.0245591 0
0.0242804 -0.0227233 0
0.0202018 -0.0206428 0
0.0201051 -0.0191205 0
0.0221214 -0.0225331 0
0.0220977 -0.0208754 0
0.0202018 -0.0206428 0
0.0182653 -0.0187219 0
0.0201051 -0.0191205 0
0.0180895 -0.0173529 0
0.0164317 -0.0168889 0
0.0161374 -0.0156582 0
0.0182653 -0.0187219 0
0.0180895 -0.0173529 0
0.0164317 -0.0168889 0
0.0145367 -0.0150037 0
0.0161374 -0.0156582 0
0.0141207 -0.0138102 0
0.0145367 -0.0150037 0
0.01265 -0.0131237 0
0.0141207 -0.0138102 0
0.0122267 -0.0120268 0
0.01265 -0.0131237 0
0.0106057 -0.0110654 0
0.0122267 -0.0120268 0
0.0102341 -0.00984112 0
0.0106057 -0.0110654 0
0.00826576 -0.00862062 0
0.0102341 -0.00984112 0
0.00847179 -0.00793513 0
0.00826576 -0.00862062 0
0.0056965 -0.00607326 0
0.00847179 -0.00793513 0
0.00646393 -0.00511817 0
0.0056965 -0.00607326 0
0.00251205 -0.00149682 0
0.00646393 -0.00511817 0
0.00524066 -0.00368316 0
0.00251205 -0.00149682 0
0.00514611 -0.000240919 0
0.00524066 -0.00368316 0
0.00537814 -0.00278947 0
0.00514611 -0.000240919 0
0.00443821 -0.000432384 0
0.00537814 -0.00278947 0
0.00434397 -0.00210749 0
0.00443821 -0.000432384 0
0.00342212 -0.000471885 0
0.00434397 -0.00210749 0
0.0034791 -0.00177014 0
0.00342212 -0.000471885 0
0.00149849 -0.000372626 0
0.0034791 -0.00177014 0
0.00172852 -0.00164202 0
-0.000385641 -0.00100148 0
-0.000377634 -0.00100267 0
-0.000385181 -0.000740162 0
-0.000378718 -0.000744164 0
-0.000385181 -0.000740162 0
-0.000378718 -0.000744164 0
-0.0003891 -0.0012012 0
-0.000384206 -0.00120475 0
-0.0003891 -0.0012012 0
-0.000384206 -0.00120475 0
-0.000397009 -0.00103334 0
-0.00039279 -0.0010383 0
-0.000397009 -0.00103334 0
-0.00039279 -0.0010383 0
-0.00040681 -0.00140221 0
-0.000405667 -0.00140814 0
-0.00040681 -0.00140221 0
-0.000405667 -0.00140814 0
-0.000420209 -0.0012993 0
-0.000419428 -0.0013054 0
-0.000420209 -0.0012993 0
-0.000419428 -0.0013054 0
-0.000433653 -0.00159084 0
-0.000434866 -0.00159777 0
-0.000450812 -0.00153354 0
-0.000433653 -0.00159084 0
-0.000452087 -0.00154088 0
-0.000434866 -0.00159777 0
-0.000450812 -0.00153354 0
-0.000452087 -0.00154088 0
-0.000469598 -0.00176067 0
-0.000471429 -0.00176863 0
-0.000469598 -0.00176067 0
-0.000471429 -0.00176863 0
-0.000492624 -0.00173567 0
-0.000494405 -0.00174504 0
-0.000492624 -0.00173567 0
-0.000494405 -0.00174504 0
-0.000520169 -0.00190791 0
-0.000522633 -0.00191848 0
-0.000520169 -0.00190791 0
-0.000522633 -0.00191848 0
-0.000553409 -0.00190477 0
-0.000557165 -0.00191779 0
-0.000553409 -0.00190477 0
-0.000557165 -0.00191779 0
-0.000594348 -0.00202531 0
-0.000602721 -0.00204076 0
-0.000594348 -0.00202531 0
-0.000602721 -0.00204076 0
-0.0006422 -0.00203156 0
-0.000657705 -0.00204963 0
-0.0006422 -0.00203156 0
-0.000657705 -0.00204963 0
-0.000697534 -0.00209385 0
-0.000725577 -0.00211445 0
-0.000697534 -0.00209385 0
-0.000725577 -0.00211445 0
-0.000755037 -0.00209263 0
-0.000800175 -0.00211391 0
-0.000755037 -0.00209263 0
-0.000800175 -0.00211391 0
-0.000808812 -0.00208211 0
-0.000874928 -0.00210178 0
-0.000808812 -0.00208211 0
-0.000874928 -0.00210178 0
-0.000846202 -0.00206057 0
-0.000932909 -0.00207395 0
-0.000846202 -0.00206057 0
-0.000932909 -0.00207395 0
-0.000856155 -0.00197221 0
-0.000955847 -0.00197532 0
-0.000856155 -0.00197221 0
-0.000955847 -0.00197532 0
-0.000830613 -0.00194946 0
-0.000928268 -0.00193969 0
-0.000830613 -0.00194946 0
-0.000928268 -0.00193969 0
-0.00077229 -0.00181117 0
-0.000853352 -0.00179296 0
-0.00077229 -0.00181117 0
-0.000853352 -0.00179296 0
-0.000693394 -0.00183801 0
-0.000751286 -0.00181528 0
-0.000693394 -0.00183801 0
-0.000751286 -0.00181528 0
-0.000606641 -0.00167225 0
-0.000641488 -0.00165093 0
-0.000606641 -0.00167225 0
-0.000641488 -0.00165093 0
-0.000527864 -0.00177867 0
-0.000543303 -0.00175968 0
-0.000527864 -0.00177867 0
-0.000543303 -0.00175968 0
-0.000455462 -0.00156313 0
-0.000457084 -0.0015505 0
-0.000455462 -0.00156313 0
-0.000457084 -0.0015505 0
-0.000405428 -0.00175704 0
-0.000400043 -0.0017463 0
-0.000405428 -0.00175704 0
-0.000400043 -0.0017463 0
-0.00035533 -0.00144382 0
-0.000343398 -0.00143599 0
-0.00035533 -0.00144382 0
-0.000343398 -0.00143599 0
-0.000321748 -0.00175511 0
-0.000308481 -0.00174909 0
-0.000321748 -0.00175511 0
-0.000308481 -0.00174909 0
-0.000286286 -0.00127685 0
-0.000268829 -0.00127404 0
-0.000286286 -0.00127685 0
-0.000268829 -0.00127404 0
-0.000277042 -0.00175762 0
-0.00025926 -0.00175812 0
-0.000277042 -0.00175762 0
-0.00025926 -0.00175812 0
-0.000269798 -0.00102208 0
-0.000251368 -0.00102186 0
-0.000269798 -0.00102208 0
-0.000251368 -0.00102186 0
-0.000272089 -0.00176906 0
-0.00025219 -0.00177033 0
0.391316 -0.127739 0
0.242765 -0.102589 0
0.269107 0.0318764 0
0.21532 -0.0238316 0
0.242765 -0.102589 0
0.166329 -0.0983292 0
0.21532 -0.0238316 0
0.159048 -0.0411846 0
0.122324 -0.080633 0
0.123281 -0.0472337 0
0.166329 -0.0983292 0
0.159048 -0.0411846 0
0.0949219 -0.0689038 0
0.0962391 -0.0451428 0
0.122324 -0.080633 0
0.123281 -0.0472337 0
0.0949219 -0.0689038 0
0.0762317 -0.0581823 0
0.0962391 -0.0451428 0
0.0785299 -0.0424784 0
0.0762317 -0.0581823 0
0.06315 -0.0506505 0
0.0785299 -0.0424784 0
0.0648169 -0.0386293 0
0.06315 -0.0506505 0
0.0534832 -0.0442601 0
0.0648169 -0.0386293 0
0.0550831 -0.0354143 0
0.0534832 -0.0442601 0
0.0461924 -0.0394059 0
0.0550831 -0.0354143 0
0.0473759 -0.0322307 0
0.0461924 -0.0394059 0
0.0405254 -0.0353097 0
0.0473759 -0.0322307 0
0.0415369 -0.0295703 0
0.0405254 -0.0353097 0
0.0360293 -0.0320181 0
0.0415369 -0.0295703 0
0.036769 -0.0271617 0
0.0360293 -0.0320181 0
0.0323544 -0.0291958 0
0.036769 -0.0271617 0
0.0329484 -0.025094 0
0.0292999 -0.026806 0
0.0297367 -0.0231878 0
0.0323544 -0.0291958 0
0.0329484 -0.025094 0
0.0266259 -0.0246601 0
0.0270008 -0.02146 0
0.0292999 -0.026806 0
0.0297367 -0.0231878 0
0.0266259 -0.0246601 0
0.0242804 -0.0227233 0
0.0270008 -0.02146 0
0.0245742 -0.0198203 0
0.0220977 -0.0208754 0
0.0222704 -0.0183057 0
0.0242804 -0.0227233 0
0.0245742 -0.0198203 0
0.0201051 -0.0191205 0
0.0201705 -0.0167821 0
0.0220977 -0.0208754 0
0.0222704 -0.0183057 0
0.0201051 -0.0191205 0
0.0180895 -0.0173529 0
0.0201705 -0.0167821 0
0.0180167 -0.0151663 0
0.0161374 -0.0156582 0
0.0159643 -0.0135163 0
0.0180895 -0.0173529 0
0.0180167 -0.0151663 0
0.0161374 -0.0156582 0
0.0141207 -0.0138102 0
0.0159643 -0.0135163 0
0.0137678 -0.0119395 0
0.0141207 -0.0138102 0
0.0122267 -0.0120268 0
0.0137678 -0.0119395 0
0.0119342 -0.0101412 0
0.0122267 -0.0120268 0
0.0102341 -0.00984112 0
0.0119342 -0.0101412 0
0.00972689 -0.00823819 0
0.0102341 -0.00984112 0
0.00847179 -0.00793513 0
0.00972689 -0.00823819 0
0.00826041 -0.00620736 0
0.0065326 -0.00356625 0
0.00537814 -0.00278947 0
0.00520016 -0.00323331 0
0.00434397 -0.00210749 0
0.00520016 -0.00323331 0
0.00434397 -0.00210749 0
0.00384397 -0.00256202 0
0.0034791 -0.00177014 0
0.00384397 -0.00256202 0
0.0034791 -0.00177014 0
0.00165014 -0.00180989 0
0.00172852 -0.00164202 0
0.00451517 -0.00357357 0
0.00384397 -0.00256202 0
0.00219723 -0.00265222 0
0.00165014 -0.00180989 0
0.00501681 -0.0031548 0
0.00451517 -0.00357357 0
0.00240936 -0.00225256 0
0.00219723 -0.00265222 0
0.00584194 -0.00302666 0
0.00501681 -0.0031548 0
0.00318103 -0.00209984 0
0.00240936 -0.00225256 0
0.007292 -0.00218598 0
0.00584194 -0.00302666 0
0.00366238 -0.000331576 0
0.00318103 -0.00209984 0
0.00960348 -0.00201306 0
0.007292 -0.00218598 0
0.00790038 0.00170636 0
0.00366238 -0.000331576 0
0.0118182 -0.00275 0
0.00960348 -0.00201306 0
0.0116884 -0.000528515 0
0.00790038 0.00170636 0
0.0118182 -0.00275 0
0.0116884 -0.000528515 0
0.0134256 -0.00374122 0
0.012733 -0.00302504 0
0.0116884 -0.000528515 0
0.0139015 -0.000243405 0
0.012733 -0.00302504 0
0.0131171 -0.00270977 0
0.0113622 -0.00451126 0
0.0119803 -0.00233087 0
0.0139015 -0.000243405 0
0.0131171 -0.00270977 0
0.0111307 -0.000319591 0
0.0108719 -0.00295201 0
0.0113622 -0.00451126 0
0.0119803 -0.00233087 0
0.0134316 -0.00497689 0
0.0101588 -0.00327156 0
0.0111307 -0.000319591 0
0.0108719 -0.00295201 0
0.00867697 -0.00614946 0