# vtk DataFile Version 3.0
#This file was generated by the deal.II library on 2016/12/20 at 10:56:35
ASCII
DATASET UNSTRUCTURED_GRID

POINTS 7168 double
-1 0.5 0
-0.978723 0.478723 0
-0.970149 0.5 0
-0.964976 0.485465 0
-0.970149 0.5 0
-0.964976 0.485465 0
-0.940299 0.5 0
-0.945882 0.477585 0
-0.910448 0.5 0
-0.940299 0.5 0
-0.919731 0.466897 0
-0.945882 0.477585 0
0.12 -0.5 0
0.15 -0.5 0
0.119014 -0.4708 0
0.15 -0.471429 0
0.11755 -0.441479 0
0.119014 -0.4708 0
0.15 -0.442857 0
0.15 -0.471429 0
0.117242 -0.412206 0
0.11755 -0.441479 0
0.15 -0.414286 0
0.15 -0.442857 0
0.118129 -0.383064 0
0.117242 -0.412206 0
0.15 -0.385714 0
0.15 -0.414286 0
0.12021 -0.354337 0
0.118129 -0.383064 0
0.15 -0.357143 0
0.15 -0.385714 0
0.121793 -0.32584 0
0.12021 -0.354337 0
0.15 -0.328571 0
0.15 -0.357143 0
0.122717 -0.296869 0
0.121793 -0.32584 0
0.15 -0.3 0
0.15 -0.328571 0
0.123759 -0.266752 0
0.122717 -0.296869 0
0.153091 -0.267708 0
0.15 -0.3 0
0.18456 -0.26795 0
0.153091 -0.267708 0
0.183333 -0.3 0
0.15 -0.3 0
0.216606 -0.268111 0
0.18456 -0.26795 0
0.216667 -0.3 0
0.183333 -0.3 0
0.24835 -0.26841 0
0.216606 -0.268111 0
0.25 -0.3 0
0.216667 -0.3 0
0.278782 -0.268564 0
0.24835 -0.26841 0
0.279437 -0.298917 0
0.25 -0.3 0
0.279638 -0.328111 0
0.279437 -0.298917 0
0.25 -0.328571 0
0.25 -0.3 0
0.27971 -0.356801 0
0.279638 -0.328111 0
0.25 -0.357143 0
0.25 -0.328571 0
0.279677 -0.385395 0
0.27971 -0.356801 0
0.25 -0.385714 0
0.25 -0.357143 0
0.279641 -0.413938 0
0.279677 -0.385395 0
0.25 -0.414286 0
0.25 -0.385714 0
0.279666 -0.442534 0
0.279641 -0.413938 0
0.25 -0.442857 0
0.25 -0.414286 0
0.279811 -0.471266 0
0.279666 -0.442534 0
0.25 -0.471429 0
0.25 -0.442857 0
0.28 -0.5 0
0.279811 -0.471266 0
0.25 -0.5 0
0.25 -0.471429 0
0.970149 0.5 0
0.970096 0.46978 0
1 0.5 0
1 0.469697 0
0.940299 0.5 0
0.940231 0.46984 0
0.970149 0.5 0
0.970096 0.46978 0
0.910448 0.5 0
0.910371 0.469856 0
0.940299 0.5 0
0.940231 0.46984 0
0.880597 0.5 0
0.880527 0.469909 0
0.910448 0.5 0
0.910371 0.469856 0
0.850746 0.5 0
0.850684 0.469926 0
0.880597 0.5 0
0.880527 0.469909 0
0.820896 0.5 0
0.820842 0.469978 0
0.850746 0.5 0
0.850684 0.469926 0
0.791045 0.5 0
0.791001 0.470016 0
0.820896 0.5 0
0.820842 0.469978 0
0.761194 0.5 0
0.761159 0.470055 0
0.791045 0.5 0
0.791001 0.470016 0
0.731343 0.5 0
0.731316 0.470091 0
0.761194 0.5 0
0.761159 0.470055 0
0.701493 0.5 0
0.701472 0.470118 0
0.731343 0.5 0
0.731316 0.470091 0
0.671642 0.5 0
0.671627 0.470134 0
0.701493 0.5 0
0.701472 0.470118 0
0.641791 0.5 0
0.64178 0.470142 0
0.671642 0.5 0
0.671627 0.470134 0
0.641791 0.5 0
0.61194 0.5 0
0.64178 0.470142 0
0.611934 0.470065 0
0.58209 0.5 0
0.582089 0.470002 0
0.61194 0.5 0
0.611934 0.470065 0
0.552239 0.5 0
0.552248 0.469853 0
0.58209 0.5 0
0.582089 0.470002 0
0.522388 0.5 0
0.522413 0.469718 0
0.552239 0.5 0
0.552248 0.469853 0
0.492537 0.5 0
0.492577 0.469656 0
0.522388 0.5 0
0.522413 0.469718 0
0.462687 0.5 0
0.462743 0.469571 0
0.492537 0.5 0
0.492577 0.469656 0
0.432836 0.5 0
0.432895 0.46963 0
0.462687 0.5 0
0.462743 0.469571 0
0.402985 0.5 0
0.403046 0.469669 0
0.432836 0.5 0
0.432895 0.46963 0
0.373134 0.5 0
0.373191 0.469745 0
0.402985 0.5 0
0.403046 0.469669 0
0.343284 0.5 0
0.343335 0.469723 0
0.373134 0.5 0
0.373191 0.469745 0
0.313433 0.5 0
0.313478 0.469741 0
0.343284 0.5 0
0.343335 0.469723 0
0.283582 0.5 0
0.283622 0.469783 0
0.313433 0.5 0
0.313478 0.469741 0
0.253731 0.5 0
0.253768 0.469742 0
0.283582 0.5 0
0.283622 0.469783 0
0.223881 0.5 0
0.223918 0.469737 0
0.253731 0.5 0
0.253768 0.469742 0
0.19403 0.5 0
0.194064 0.46981 0
0.223881 0.5 0
0.223918 0.469737 0
0.164179 0.5 0
0.16421 0.469881 0
0.19403 0.5 0
0.194064 0.46981 0
0.134328 0.5 0
0.134355 0.46994 0
0.164179 0.5 0
0.16421 0.469881 0
0.104478 0.5 0
0.1045 0.469997 0
0.134328 0.5 0
0.134355 0.46994 0
0.074627 0.5 0
0.074645 0.470051 0
0.104478 0.5 0
0.1045 0.469997 0
0.044776 0.5 0
0.04479 0.470093 0
0.074627 0.5 0
0.074645 0.470051 0
0.014925 0.5 0
0.014935 0.47012 0
0.044776 0.5 0
0.04479 0.470093 0
-0.014925 0.5 0
-0.014918 0.470135 0
0.014925 0.5 0
0.014935 0.47012 0
-0.044776 0.5 0
-0.044771 0.470143 0
-0.014925 0.5 0
-0.014918 0.470135 0
-0.074627 0.5 0
-0.074623 0.470146 0
-0.044776 0.5 0
-0.044771 0.470143 0
-0.104478 0.5 0
-0.104496 0.469979 0
-0.074627 0.5 0
-0.074623 0.470146 0
-0.134328 0.5 0
-0.134359 0.469935 0
-0.104478 0.5 0
-0.104496 0.469979 0
-0.164179 0.5 0
-0.164225 0.469839 0
-0.134328 0.5 0
-0.134359 0.469935 0
-0.164179 0.5 0
-0.19403 0.5 0
-0.164225 0.469839 0
-0.194083 0.469797 0
-0.223881 0.5 0
-0.22394 0.469753 0
-0.19403 0.5 0
-0.194083 0.469797 0
-0.253731 0.5 0
-0.253798 0.469819 0
-0.223881 0.5 0
-0.22394 0.469753 0
-0.283582 0.5 0
-0.283647 0.470019 0
-0.253731 0.5 0
-0.253798 0.469819 0
-0.313433 0.5 0
-0.313491 0.470151 0
-0.283582 0.5 0
-0.283647 0.470019 0
-0.343284 0.5 0
-0.343348 0.470381 0
-0.313433 0.5 0
-0.313491 0.470151 0
-0.343284 0.5 0
-0.373134 0.5 0
-0.343348 0.470381 0
-0.373195 0.470395 0
-0.373134 0.5 0
-0.402985 0.5 0
-0.373195 0.470395 0
-0.403049 0.470404 0
-0.432836 0.5 0
-0.432937 0.470297 0
-0.402985 0.5 0
-0.403049 0.470404 0
-0.462687 0.5 0
-0.462848 0.469995 0
-0.432836 0.5 0
-0.432937 0.470297 0
-0.492537 0.5 0
-0.492807 0.469765 0
-0.462687 0.5 0
-0.462848 0.469995 0
-0.522388 0.5 0
-0.52276 0.46958 0
-0.492537 0.5 0
-0.492807 0.469765 0
-0.552239 0.5 0
-0.55273 0.469652 0
-0.522388 0.5 0
-0.52276 0.46958 0
-0.58209 0.5 0
-0.582662 0.469731 0
-0.552239 0.5 0
-0.55273 0.469652 0
-0.61194 0.5 0
-0.612594 0.469999 0
-0.58209 0.5 0
-0.582662 0.469731 0
-0.641791 0.5 0
-0.642647 0.470419 0
-0.61194 0.5 0
-0.612594 0.469999 0
-0.671642 0.5 0
-0.672638 0.470543 0
-0.641791 0.5 0
-0.642647 0.470419 0
-0.701493 0.5 0
-0.702968 0.4698 0
-0.671642 0.5 0
-0.672638 0.470543 0
-0.701493 0.5 0
-0.731343 0.5 0
-0.702968 0.4698 0
-0.733232 0.468149 0
-0.850746 0.5 0
-0.850723 0.467038 0
-0.820896 0.5 0
-0.822797 0.47207 0
0.31 -0.5 0
0.309694 -0.471123 0
0.28 -0.5 0
0.279811 -0.471266 0
0.31 -0.5 0
0.34 -0.5 0
0.309694 -0.471123 0
0.339686 -0.471033 0
0.37 -0.5 0
0.369721 -0.471055 0
0.34 -0.5 0
0.339686 -0.471033 0
0.37 -0.5 0
0.4 -0.5 0
0.369721 -0.471055 0
0.399756 -0.470957 0
0.4 -0.5 0
0.43 -0.5 0
0.399756 -0.470957 0
0.429805 -0.470822 0
0.43 -0.5 0
0.46 -0.5 0
0.429805 -0.470822 0
0.459835 -0.470712 0
0.46 -0.5 0
0.49 -0.5 0
0.459835 -0.470712 0
0.489873 -0.470554 0
0.49 -0.5 0
0.52 -0.5 0
0.489873 -0.470554 0
0.519906 -0.470379 0
0.52 -0.5 0
0.55 -0.5 0
0.519906 -0.470379 0
0.54993 -0.470248 0
0.55 -0.5 0
0.58 -0.5 0
0.54993 -0.470248 0
0.579948 -0.470155 0
0.58 -0.5 0
0.61 -0.5 0
0.579948 -0.470155 0
0.609962 -0.470091 0
0.61 -0.5 0
0.64 -0.5 0
0.609962 -0.470091 0
0.639972 -0.47005 0
0.64 -0.5 0
0.67 -0.5 0
0.639972 -0.47005 0
0.66998 -0.470026 0
0.67 -0.5 0
0.7 -0.5 0
0.66998 -0.470026 0
0.699986 -0.470013 0
0.7 -0.5 0
0.73 -0.5 0
0.699986 -0.470013 0
0.72999 -0.470006 0
0.73 -0.5 0
0.76 -0.5 0
0.72999 -0.470006 0
0.759994 -0.470003 0
0.76 -0.5 0
0.79 -0.5 0
0.759994 -0.470003 0
0.78998 -0.469916 0
0.79 -0.5 0
0.82 -0.5 0
0.78998 -0.469916 0
0.819956 -0.469877 0
0.82 -0.5 0
0.85 -0.5 0
0.819956 -0.469877 0
0.849929 -0.469833 0
0.85 -0.5 0
0.88 -0.5 0
0.849929 -0.469833 0
0.879924 -0.469805 0
0.88 -0.5 0
0.91 -0.5 0
0.879924 -0.469805 0
0.909913 -0.469792 0
0.91 -0.5 0
0.94 -0.5 0
0.909913 -0.469792 0
0.939922 -0.469775 0
0.94 -0.5 0
0.97 -0.5 0
0.939922 -0.469775 0
0.969956 -0.46974 0
0.97 -0.5 0
1 -0.5 0
0.969956 -0.46974 0
1 -0.469697 0
-0.744681 0.244681 0
-0.723404 0.223404 0
-0.723868 0.265704 0
-0.702394 0.245107 0
-0.702128 0.202128 0
-0.680976 0.2243 0
-0.723404 0.223404 0
-0.702394 0.245107 0
-0.702128 0.202128 0
-0.680851 0.180851 0
-0.680976 0.2243 0
-0.659597 0.203254 0
-0.680851 0.180851 0
-0.659574 0.159574 0
-0.659597 0.203254 0
-0.638233 0.18203 0
-0.638298 0.138298 0
-0.616915 0.16063 0
-0.659574 0.159574 0
-0.638233 0.18203 0
-0.617021 0.117021 0
-0.595665 0.139192 0
-0.638298 0.138298 0
-0.616915 0.16063 0
-0.617021 0.117021 0
-0.595745 0.095745 0
-0.595665 0.139192 0
-0.574431 0.117764 0
-0.595745 0.095745 0
-0.574468 0.074468 0
-0.574431 0.117764 0
-0.553204 0.096309 0
-0.553191 0.053191 0
-0.53184 0.075023 0
-0.574468 0.074468 0
-0.553204 0.096309 0
-0.553191 0.053191 0
-0.531915 0.031915 0
-0.53184 0.075023 0
-0.510492 0.053733 0
-0.531915 0.031915 0
-0.510638 0.010638 0
-0.510492 0.053733 0
-0.489127 0.032461 0
-0.510638 0.010638 0
-0.489362 -0.010638 0
-0.489127 0.032461 0
-0.467791 0.011178 0
-0.489362 -0.010638 0
-0.468085 -0.031915 0
-0.467791 0.011178 0
-0.446536 -0.010172 0
-0.446809 -0.053191 0
-0.42524 -0.031466 0
-0.468085 -0.031915 0
-0.446536 -0.010172 0
-0.425532 -0.074468 0
-0.404012 -0.052824 0
-0.446809 -0.053191 0
-0.42524 -0.031466 0
-0.425532 -0.074468 0
-0.404255 -0.095745 0
-0.404012 -0.052824 0
-0.382783 -0.074175 0
-0.404255 -0.095745 0
-0.382979 -0.117021 0
-0.382783 -0.074175 0
-0.361545 -0.095511 0
-0.382979 -0.117021 0
-0.361702 -0.138298 0
-0.361545 -0.095511 0
-0.340288 -0.116831 0
-0.361702 -0.138298 0
-0.340426 -0.159574 0
-0.340288 -0.116831 0
-0.319034 -0.138159 0
-0.340426 -0.159574 0
-0.319149 -0.180851 0
-0.319034 -0.138159 0
-0.297766 -0.159484 0
-0.319149 -0.180851 0
-0.297872 -0.202128 0
-0.297766 -0.159484 0
-0.276489 -0.180797 0
-0.297872 -0.202128 0
-0.276596 -0.223404 0
-0.276489 -0.180797 0
-0.255087 -0.202105 0
-0.255319 -0.244681 0
-0.233674 -0.223466 0
-0.276596 -0.223404 0
-0.255087 -0.202105 0
-0.234043 -0.265957 0
-0.212119 -0.244916 0
-0.255319 -0.244681 0
-0.233674 -0.223466 0
-0.234043 -0.265957 0
-0.212766 -0.287234 0
-0.212119 -0.244916 0
-0.190657 -0.266392 0
-0.191489 -0.308511 0
-0.169261 -0.287934 0
-0.212766 -0.287234 0
-0.190657 -0.266392 0
-0.170213 -0.329787 0
-0.147854 -0.309624 0
-0.191489 -0.308511 0
-0.169261 -0.287934 0
-0.170213 -0.329787 0
-0.148936 -0.351064 0
-0.147854 -0.309624 0
-0.126431 -0.331364 0
-0.12766 -0.37234 0
-0.105256 -0.353368 0
-0.148936 -0.351064 0
-0.126431 -0.331364 0
-0.12766 -0.37234 0
-0.106383 -0.393617 0
[...]
POINT_DATA 7168
VECTORS momentum double
0.00140005 -0.00102265 0
0.00403802 -0.00432332 0
0.00720644 -0.00108269 0
0.00807702 -0.00314684 0
0.00720644 -0.00108269 0
0.00807702 -0.00314684 0
0.0131145 -0.00120334 0
0.0184539 -0.00886339 0
0.0134389 -0.00262675 0
0.0131145 -0.00120334 0
0.0215323 -0.0181831 0
0.0184539 -0.00886339 0
-0.000168589 -0.000393382 0
4.91567e-05 -0.000373862 0
-6.79998e-05 -0.000946355 0
5.76871e-05 -0.000939792 0
-0.000222001 -0.000518379 0
-6.79998e-05 -0.000946355 0
5.75072e-05 -0.000506461 0
5.76871e-05 -0.000939792 0
2.61034e-05 -0.000795468 0
-0.000222001 -0.000518379 0
1.29858e-05 -0.00091646 0
5.75072e-05 -0.000506461 0
3.69931e-05 -0.000232346 0
2.61034e-05 -0.000795468 0
-4.50718e-05 -0.000164597 0
1.29858e-05 -0.00091646 0
0.000148023 -0.000260956 0
3.69931e-05 -0.000232346 0
3.36132e-05 -0.000439247 0
-4.50718e-05 -0.000164597 0
-1.79482e-06 0.000182679 0
0.000148023 -0.000260956 0
-0.00018156 0.000480634 0
3.36132e-05 -0.000439247 0
0.000526921 8.35979e-05 0
-1.79482e-06 0.000182679 0
0.000485693 -0.000153036 0
-0.00018156 0.000480634 0
0.000191775 6.12747e-05 0
0.000526921 8.35979e-05 0
0.000227039 -0.000357813 0
0.000485693 -0.000153036 0
7.28506e-05 -0.000957732 0
0.000227039 -0.000357813 0
0.000701582 -0.000574735 0
0.000485693 -0.000153036 0
-5.25691e-05 -0.000916429 0
7.28506e-05 -0.000957732 0
-0.000709855 -0.000543275 0
0.000701582 -0.000574735 0
-0.000236149 -0.000371962 0
-5.25691e-05 -0.000916429 0
-0.000473709 -0.000180912 0
-0.000709855 -0.000543275 0
-0.000197816 1.89958e-05 0
-0.000236149 -0.000371962 0
-0.000472487 -9.76097e-06 0
-0.000473709 -0.000180912 0
4.91746e-05 0.000122162 0
-0.000472487 -9.76097e-06 0
0.000128155 0.000472333 0
-0.000473709 -0.000180912 0
-0.000112666 -0.000260055 0
4.91746e-05 0.000122162 0
-6.42315e-05 -0.000423737 0
0.000128155 0.000472333 0
3.54262e-05 -9.12604e-05 0
-0.000112666 -0.000260055 0
2.86096e-05 2.66263e-05 0
-6.42315e-05 -0.000423737 0
-4.35471e-05 -0.000597146 0
3.54262e-05 -9.12604e-05 0
-1.78278e-05 -0.00066265 0
2.86096e-05 2.66263e-05 0
2.20941e-05 -0.000321584 0
-4.35471e-05 -0.000597146 0
1.02726e-05 -0.00027991 0
-1.78278e-05 -0.00066265 0
-1.95735e-05 -0.000836502 0
2.20941e-05 -0.000321584 0
-6.993e-06 -0.000858274 0
1.02726e-05 -0.00027991 0
2.14817e-05 -0.000369336 0
-1.95735e-05 -0.000836502 0
5.8352e-06 -0.000350757 0
-6.993e-06 -0.000858274 0
-1.23665e-05 -0.000698124 0
-6.39148e-06 -0.00170622 0
-1.22871e-05 -0.000698827 0
-3.88859e-06 -0.0017082 0
-1.07274e-05 -0.00069825 0
-6.80948e-06 -0.00170418 0
-1.23665e-05 -0.000698124 0
-6.39148e-06 -0.00170622 0
-9.95921e-06 -0.000697705 0
-4.61073e-06 -0.00170201 0
-1.07274e-05 -0.00069825 0
-6.80948e-06 -0.00170418 0
-9.38493e-06 -0.000696503 0
-3.96347e-06 -0.00169983 0
-9.95921e-06 -0.000697705 0
-4.61073e-06 -0.00170201 0
-8.98945e-06 -0.000695713 0
-2.68331e-06 -0.00169762 0
-9.38493e-06 -0.000696503 0
-3.96347e-06 -0.00169983 0
-8.55535e-06 -0.000694103 0
-1.8757e-06 -0.00169529 0
-8.98945e-06 -0.000695713 0
-2.68331e-06 -0.00169762 0
-7.06539e-06 -0.000693269 0
-7.51436e-07 -0.00169287 0
-8.55535e-06 -0.000694103 0
-1.8757e-06 -0.00169529 0
-5.86477e-06 -0.000691731 0
1.02827e-06 -0.00169104 0
-7.06539e-06 -0.000693269 0
-7.51436e-07 -0.00169287 0
-2.77176e-06 -0.000690482 0
1.9221e-06 -0.00168951 0
-5.86477e-06 -0.000691731 0
1.02827e-06 -0.00169104 0
3.81679e-07 -0.00068983 0
4.48904e-06 -0.001689 0
-2.77176e-06 -0.000690482 0
1.9221e-06 -0.00168951 0
5.7392e-06 -0.000688663 0
7.50207e-06 -0.00168893 0
3.81679e-07 -0.00068983 0
4.48904e-06 -0.001689 0
1.24356e-05 -0.000688071 0
7.07281e-06 -0.00169104 0
5.7392e-06 -0.000688663 0
7.50207e-06 -0.00168893 0
1.24356e-05 -0.000688071 0
1.65434e-05 -0.00068929 0
7.07281e-06 -0.00169104 0
7.42234e-06 -0.00169377 0
2.1181e-05 -0.000690081 0
5.4772e-06 -0.00169903 0
1.65434e-05 -0.00068929 0
7.42234e-06 -0.00169377 0
2.24692e-05 -0.000693778 0
2.92886e-06 -0.00170298 0
2.1181e-05 -0.000690081 0
5.4772e-06 -0.00169903 0
1.86591e-05 -0.000697276 0
5.75458e-06 -0.00170469 0
2.24692e-05 -0.000693778 0
2.92886e-06 -0.00170298 0
1.81153e-05 -0.000698818 0
8.26342e-06 -0.00170517 0
1.86591e-05 -0.000697276 0
5.75458e-06 -0.00170469 0
1.33711e-05 -0.000701296 0
9.14738e-06 -0.00170523 0
1.81153e-05 -0.000698818 0
8.26342e-06 -0.00170517 0
4.39004e-06 -0.000701762 0
8.92962e-06 -0.00170444 0
1.33711e-05 -0.000701296 0
9.14738e-06 -0.00170523 0
-1.68708e-06 -0.000700594 0
6.75096e-06 -0.00170101 0
4.39004e-06 -0.000701762 0
8.92962e-06 -0.00170444 0
-4.00123e-06 -0.000698829 0
1.05326e-06 -0.00169896 0
-1.68708e-06 -0.000700594 0
6.75096e-06 -0.00170101 0
-3.31773e-06 -0.000699326 0
-2.68539e-06 -0.00169526 0
-4.00123e-06 -0.000698829 0
1.05326e-06 -0.00169896 0
-5.44839e-06 -0.00069923 0
-2.58402e-06 -0.00169605 0
-3.31773e-06 -0.000699326 0
-2.68539e-06 -0.00169526 0
-4.69396e-06 -0.000698555 0
-3.61476e-06 -0.00169523 0
-5.44839e-06 -0.00069923 0
-2.58402e-06 -0.00169605 0
-1.56022e-06 -0.00069916 0
-4.33473e-06 -0.001693 0
-4.69396e-06 -0.000698555 0
-3.61476e-06 -0.00169523 0
-4.67772e-06 -0.000701377 0
-5.24635e-06 -0.0016901 0
-1.56022e-06 -0.00069916 0
-4.33473e-06 -0.001693 0
-1.1391e-05 -0.000703445 0
-4.28932e-06 -0.00168556 0
-4.67772e-06 -0.000701377 0
-5.24635e-06 -0.0016901 0
-1.504e-05 -0.000701082 0
-2.99746e-06 -0.00168413 0
-1.1391e-05 -0.000703445 0
-4.28932e-06 -0.00168556 0
-1.53912e-05 -0.000698177 0
-4.54775e-06 -0.0016835 0
-1.504e-05 -0.000701082 0
-2.99746e-06 -0.00168413 0
-1.495e-05 -0.000695406 0
-4.43015e-06 -0.00168358 0
-1.53912e-05 -0.000698177 0
-4.54775e-06 -0.0016835 0
-1.32386e-05 -0.000691734 0
-2.74271e-06 -0.00168461 0
-1.495e-05 -0.000695406 0
-4.43015e-06 -0.00168358 0
-9.47302e-06 -0.000688379 0
-2.27382e-06 -0.00168589 0
-1.32386e-05 -0.000691734 0
-2.74271e-06 -0.00168461 0
-3.64071e-06 -0.00068755 0
-1.17563e-06 -0.00168418 0
-9.47302e-06 -0.000688379 0
-2.27382e-06 -0.00168589 0
1.66992e-06 -0.000687729 0
3.90224e-06 -0.00168429 0
-3.64071e-06 -0.00068755 0
-1.17563e-06 -0.00168418 0
1.1547e-05 -0.000687297 0
1.05255e-05 -0.00168337 0
1.66992e-06 -0.000687729 0
3.90224e-06 -0.00168429 0
2.25389e-05 -0.000688283 0
1.05758e-05 -0.00168464 0
1.1547e-05 -0.000687297 0
1.05255e-05 -0.00168337 0
2.38504e-05 -0.0006919 0
8.86336e-06 -0.00168351 0
2.25389e-05 -0.000688283 0
1.05758e-05 -0.00168464 0
1.8731e-05 -0.000695766 0
3.69261e-06 -0.00168124 0
2.38504e-05 -0.0006919 0
8.86336e-06 -0.00168351 0
1.20787e-05 -0.000701318 0
-5.33024e-06 -0.0016772 0
1.8731e-05 -0.000695766 0
3.69261e-06 -0.00168124 0
1.20787e-05 -0.000701318 0
-5.11389e-06 -0.000707063 0
-5.33024e-06 -0.0016772 0
-1.51413e-05 -0.0016717 0
-2.17058e-05 -0.00070653 0
-1.48016e-05 -0.00167726 0
-5.11389e-06 -0.000707063 0
-1.51413e-05 -0.0016717 0
-3.86359e-05 -0.000701525 0
-1.45815e-05 -0.00168367 0
-2.17058e-05 -0.00070653 0
-1.48016e-05 -0.00167726 0
-3.57277e-05 -0.000693842 0
-5.76267e-06 -0.00168682 0
-3.86359e-05 -0.000701525 0
-1.45815e-05 -0.00168367 0
-3.63789e-05 -0.00068666 0
-9.88166e-06 -0.00169168 0
-3.57277e-05 -0.000693842 0
-5.76267e-06 -0.00168682 0
-5.13224e-06 -0.000679973 0
1.80557e-05 -0.00169727 0
-3.63789e-05 -0.00068666 0
-9.88166e-06 -0.00169168 0
-5.13224e-06 -0.000679973 0
7.0816e-07 -0.000672219 0
1.80557e-05 -0.00169727 0
6.12955e-06 -0.00170182 0
7.0816e-07 -0.000672219 0
5.68339e-05 -0.000675153 0
6.12955e-06 -0.00170182 0
4.30893e-05 -0.00169817 0
1.62778e-05 -0.000678993 0
-1.51379e-05 -0.00169797 0
5.68339e-05 -0.000675153 0
4.30893e-05 -0.00169817 0
4.66607e-05 -0.000685796 0
2.6255e-05 -0.00169571 0
1.62778e-05 -0.000678993 0
-1.51379e-05 -0.00169797 0
-0.000170166 -0.000677456 0
-0.000187088 -0.00170007 0
4.66607e-05 -0.000685796 0
2.6255e-05 -0.00169571 0
-0.000260685 -0.00068612 0
-0.00027636 -0.00166921 0
-0.000170166 -0.000677456 0
-0.000187088 -0.00170007 0
-0.00106185 -0.000693454 0
-0.00107243 -0.0015403 0
-0.000260685 -0.00068612 0
-0.00027636 -0.00166921 0
-0.00205294 -0.000720389 0
-0.00195979 -0.00123192 0
-0.00106185 -0.000693454 0
-0.00107243 -0.0015403 0
-0.00543286 -0.000646641 0
-0.0051981 -0.000692338 0
-0.00205294 -0.000720389 0
-0.00195979 -0.00123192 0
-0.010581 -0.000689669 0
-0.0104173 0.00111971 0
-0.00543286 -0.000646641 0
-0.0051981 -0.000692338 0
-0.0197591 -0.00118311 0
-0.0249225 -0.000899675 0
-0.010581 -0.000689669 0
-0.0104173 0.00111971 0
-0.0227066 -0.00230789 0
-0.0292036 -0.0176848 0
-0.0197591 -0.00118311 0
-0.0249225 -0.000899675 0
-0.0227066 -0.00230789 0
-0.0204826 -0.00189175 0
-0.0292036 -0.0176848 0
-0.0179433 -0.0310821 0
0.000546953 -0.00224228 0
0.00344167 -0.0348272 0
0.00120195 -0.0015039 0
-0.00017472 -0.0231218 0
1.8551e-05 -0.00038284 0
-1.27056e-05 -0.000833903 0
2.14817e-05 -0.000369336 0
-1.95735e-05 -0.000836502 0
1.8551e-05 -0.00038284 0
1.08089e-05 -0.00039694 0
-1.27056e-05 -0.000833903 0
-4.05901e-06 -0.000825803 0
7.0885e-06 -0.000397953 0
8.37021e-07 -0.000829179 0
1.08089e-05 -0.00039694 0
-4.05901e-06 -0.000825803 0
7.0885e-06 -0.000397953 0
1.08208e-05 -0.000402982 0
8.37021e-07 -0.000829179 0
1.32765e-07 -0.000825961 0
1.08208e-05 -0.000402982 0
1.24655e-05 -0.000403434 0
1.32765e-07 -0.000825961 0
3.35081e-06 -0.000829927 0
1.24655e-05 -0.000403434 0
1.32807e-05 -0.000405813 0
3.35081e-06 -0.000829927 0
4.86298e-06 -0.000830694 0
1.32807e-05 -0.000405813 0
1.38573e-05 -0.000404966 0
4.86298e-06 -0.000830694 0
4.21474e-06 -0.000835728 0
1.38573e-05 -0.000404966 0
1.39942e-05 -0.000407454 0
4.21474e-06 -0.000835728 0
1.15024e-06 -0.000838451 0
1.39942e-05 -0.000407454 0
1.1306e-05 -0.00040918 0
1.15024e-06 -0.000838451 0
1.28563e-06 -0.000841943 0
1.1306e-05 -0.00040918 0
8.64356e-06 -0.000411112 0
1.28563e-06 -0.000841943 0
1.25266e-06 -0.000844062 0
8.64356e-06 -0.000411112 0
6.52936e-06 -0.000411998 0
1.25266e-06 -0.000844062 0
1.56602e-06 -0.000846088 0
6.52936e-06 -0.000411998 0
4.95998e-06 -0.000413006 0
1.56602e-06 -0.000846088 0
1.76666e-06 -0.000847016 0
4.95998e-06 -0.000413006 0
3.90613e-06 -0.000413224 0
1.76666e-06 -0.000847016 0
2.46028e-06 -0.000847917 0
3.90613e-06 -0.000413224 0
3.37372e-06 -0.000413424 0
2.46028e-06 -0.000847917 0
2.57696e-06 -0.000848364 0
3.37372e-06 -0.000413424 0
3.64224e-06 -0.000413458 0
2.57696e-06 -0.000848364 0
2.63899e-06 -0.000848935 0
3.64224e-06 -0.000413458 0
5.3412e-06 -0.000413536 0
2.63899e-06 -0.000848935 0
1.65323e-06 -0.000850068 0
5.3412e-06 -0.000413536 0
5.7058e-06 -0.000414276 0
1.65323e-06 -0.000850068 0
6.8116e-07 -0.000851234 0
5.7058e-06 -0.000414276 0
5.75465e-06 -0.0004151 0
6.8116e-07 -0.000851234 0
1.3984e-06 -0.000852799 0
5.75465e-06 -0.0004151 0
5.66377e-06 -0.000415992 0
1.3984e-06 -0.000852799 0
1.97472e-06 -0.000854366 0
5.66377e-06 -0.000415992 0
4.52526e-06 -0.000416641 0
1.97472e-06 -0.000854366 0
2.24645e-06 -0.000855612 0
4.52526e-06 -0.000416641 0
3.81133e-06 -0.00041685 0
2.24645e-06 -0.000855612 0
2.0555e-06 -0.000856893 0
3.81133e-06 -0.00041685 0
3.35913e-06 -0.00041721 0
2.0555e-06 -0.000856893 0
1.94683e-06 -0.000857322 0
3.35913e-06 -0.00041721 0
2.93156e-06 -0.000417155 0
1.94683e-06 -0.000857322 0
1.86537e-06 -0.000857456 0
2.93156e-06 -0.000417155 0
2.58672e-06 -0.000417051 0
1.86537e-06 -0.000857456 0
1.23972e-06 -0.000857466 0
0.0313461 -0.0321503 0
0.0207672 -0.0212053 0
0.0310593 -0.0343085 0
0.0216785 -0.0201646 0
0.0113236 -0.0115528 0
0.0122879 -0.0099064 0
0.0207672 -0.0212053 0
0.0216785 -0.0201646 0
0.0113236 -0.0115528 0
0.00570358 -0.00620921 0
0.0122879 -0.0099064 0
0.00550152 -0.00545895 0
0.00570358 -0.00620921 0
0.00262362 -0.00312562 0
0.00550152 -0.00545895 0
0.00251109 -0.00303648 0
0.00108956 -0.00164856 0
0.000673038 -0.00176417 0
0.00262362 -0.00312562 0
0.00251109 -0.00303648 0
0.000374535 -0.000931131 0
3.15163e-05 -0.00116966 0
0.00108956 -0.00164856 0
0.000673038 -0.00176417 0
0.000374535 -0.000931131 0
4.30942e-06 -0.000564175 0
3.15163e-05 -0.00116966 0
-0.00040911 -0.000842401 0
4.30942e-06 -0.000564175 0
-0.000121024 -0.000429026 0
-0.00040911 -0.000842401 0
-0.000507802 -0.000727462 0
-0.000198612 -0.000343902 0
-0.000604883 -0.00063418 0
-0.000121024 -0.000429026 0
-0.000507802 -0.000727462 0
-0.000198612 -0.000343902 0
-0.000206397 -0.000336492 0
-0.000604883 -0.00063418 0
-0.000593135 -0.000617399 0
-0.000206397 -0.000336492 0
-0.000224758 -0.000308543 0
-0.000593135 -0.000617399 0
-0.000606098 -0.000592294 0
-0.000224758 -0.000308543 0
-0.000215001 -0.000312785 0
-0.000606098 -0.000592294 0
-0.00058883 -0.000589415 0
-0.000215001 -0.000312785 0
-0.000219874 -0.000299106 0
-0.00058883 -0.000589415 0
-0.000585448 -0.000575538 0
-0.000213009 -0.00029877 0
-0.000572036 -0.000564633 0
-0.000219874 -0.000299106 0
-0.000585448 -0.000575538 0
-0.000216275 -0.000293325 0
-0.000564075 -0.000548142 0
-0.000213009 -0.00029877 0
-0.000572036 -0.000564633 0
-0.000216275 -0.000293325 0
-0.000217188 -0.000288299 0
-0.000564075 -0.000548142 0
-0.000553747 -0.000534573 0
-0.000217188 -0.000288299 0
-0.000216842 -0.000285202 0
-0.000553747 -0.000534573 0
-0.000544162 -0.000522959 0
-0.000216842 -0.000285202 0
-0.000215926 -0.000280296 0
-0.000544162 -0.000522959 0
-0.000535736 -0.000514894 0
-0.000215926 -0.000280296 0
-0.000209113 -0.00028012 0
-0.000535736 -0.000514894 0
-0.00052822 -0.000510308 0
-0.000209113 -0.00028012 0
-0.000206439 -0.000277996 0
-0.00052822 -0.000510308 0
-0.000519155 -0.000504238 0
-0.000206439 -0.000277996 0
-0.000195216 -0.000283232 0
-0.000519155 -0.000504238 0
-0.000508234 -0.000499788 0
-0.000195216 -0.000283232 0
-0.000195227 -0.00028212 0
-0.000508234 -0.000499788 0
-0.000500619 -0.000500858 0
-0.00018298 -0.000279026 0
-0.000491033 -0.000512985 0
-0.000195227 -0.00028212 0
-0.000500619 -0.000500858 0
-0.000178843 -0.000272887 0
-0.000506748 -0.000508623 0
-0.00018298 -0.000279026 0
-0.000491033 -0.000512985 0
-0.000178843 -0.000272887 0
-0.000173198 -0.000280028 0
-0.000506748 -0.000508623 0
-0.000503561 -0.000498027 0
-0.000188421 -0.000279385 0
-0.000513895 -0.000470651 0
-0.000173198 -0.000280028 0
-0.000503561 -0.000498027 0
-0.000192311 -0.000305639 0
-0.000468602 -0.000459741 0
-0.000188421 -0.000279385 0
-0.000513895 -0.000470651 0
-0.000192311 -0.000305639 0
-0.000226651 -0.000272805 0
-0.000468602 -0.000459741 0
-0.0004646 -0.000465392 0
-0.000181038 -0.00029787 0
-0.000442566 -0.000507792 0
-0.000226651 -0.000272805 0
-0.0004646 -0.000465392 0
-0.000181038 -0.00029787 0
-0.000159635 -0.000318629 0
-0.000442566 -0.000507792 0
-0.000484526 -0.000520765 0
-0.000159635 -0.000318629 0
-4.98706e-05 -0.000452401 0
-0.000484526 -0.000520765 0
-0.000367531 -0.000647584 0
-4.98706e-05 -0.000452401 0
-4.00206e-05 -0.000472143 0
-0.000367531 -0.000647584 0
-0.000348483 -0.000622797 0
-4.00206e-05 -0.000472143 0
-5.67722e-05 -0.000438082 0
-0.000348483 -0.000622797 0
-2.74039e-05 -0.000893564 0
-5.67722e-05 -0.000438082 0
-1.58386e-05 -0.000301952 0
-2.74039e-05 -0.000893564 0
-0.000167605 -0.00047054 0
-1.58386e-05 -0.000301952 0
2.13284e-05 -0.00041041 0
-0.000167605 -0.00047054 0
-0.000203942 -0.000853744 0
2.13284e-05 -0.00041041 0
9.97685e-05 -0.000288266 0
-0.000203942 -0.000853744 0
-1.368e-09 -0.00074145 0
9.97685e-05 -0.000288266 0
6.11338e-05 -0.000378884 0
-1.368e-09 -0.00074145 0
-0.000291145 -0.000831672 0
6.11338e-05 -0.000378884 0
-1.34367e-05 -0.000447428 0
-0.000291145 -0.000831672 0
-1.7533e-05 -0.000795436 0
-1.34367e-05 -0.000447428 0
-0.000168589 -0.000393382 0
-1.7533e-05 -0.000795436 0
-6.79998e-05 -0.000946355 0
1.86537e-06 -0.000857456 0
1.23972e-06 -0.000857466 0
9.685e-07 -0.000397699 0
3.62941e-07 -0.000398853 0
9.685e-07 -0.000397699 0
3.62941e-07 -0.000398853 0
3.24049e-07 -0.000612704 0
-1.11904e-07 -0.000612398 0
3.24049e-07 -0.000612704 0
-1.11904e-07 -0.000612398 0
-6.91137e-07 -0.000193561 0
6.62067e-08 -0.000193365 0
-6.91137e-07 -0.000193561 0
6.62067e-08 -0.000193365 0
4.94091e-08 -0.00032221 0
-4.6287e-07 -0.000322364 0
4.94091e-08 -0.00032221 0
-4.6287e-07 -0.000322364 0
-1.05469e-06 -4.0176e-05 0
-4.43538e-07 -3.97986e-05 0
-1.05469e-06 -4.0176e-05 0
-4.43538e-07 -3.97986e-05 0
-1.37455e-07 -0.000147934 0
-3.31025e-07 -0.000148217 0
-1.237e-06 1.61946e-05 0
-1.37455e-07 -0.000147934 0
-9.99261e-07 1.61451e-05 0
-3.31025e-07 -0.000148217 0
-1.237e-06 1.61946e-05 0
-9.99261e-07 1.61451e-05 0
-8.77256e-07 -6.78022e-05 0
-6.34143e-07 -6.79673e-05 0
-8.77256e-07 -6.78022e-05 0
-6.34143e-07 -6.79673e-05 0
-1.58896e-06 2.34228e-05 0
-1.39423e-06 2.31788e-05 0
-1.58896e-06 2.34228e-05 0
-1.39423e-06 2.31788e-05 0
-1.63463e-06 -3.32773e-05 0
-1.04553e-06 -3.33436e-05 0
-1.63463e-06 -3.32773e-05 0
-1.04553e-06 -3.33436e-05 0
-2.21221e-06 1.60298e-05 0
-1.56873e-06 1.55546e-05 0
-2.21221e-06 1.60298e-05 0
-1.56873e-06 1.55546e-05 0
-2.69307e-06 -1.7741e-05 0
-2.2947e-06 -1.85898e-05 0
-2.69307e-06 -1.7741e-05 0
-2.2947e-06 -1.85898e-05 0
-3.71301e-06 6.88245e-06 0
-4.10014e-06 5.52968e-06 0
-3.71301e-06 6.88245e-06 0
-4.10014e-06 5.52968e-06 0
-4.9121e-06 -1.01513e-05 0
-6.69688e-06 -1.25682e-05 0
-4.9121e-06 -1.01513e-05 0
-6.69688e-06 -1.25682e-05 0
-6.64624e-06 -1.01709e-06 0
-1.17145e-05 -4.18208e-06 0
-6.64624e-06 -1.01709e-06 0
-1.17145e-05 -4.18208e-06 0
-8.31207e-06 -4.59364e-06 0
-1.70054e-05 -8.24026e-06 0
-8.31207e-06 -4.59364e-06 0
-1.70054e-05 -8.24026e-06 0
-9.56909e-06 -6.2344e-06 0
-2.35194e-05 -9.07659e-06 0
-9.56909e-06 -6.2344e-06 0
-2.35194e-05 -9.07659e-06 0
-9.38921e-06 4.55066e-06 0
-2.59803e-05 4.65949e-06 0
-9.38921e-06 4.55066e-06 0
-2.59803e-05 4.65949e-06 0
-7.80099e-06 -1.0331e-05 0
-2.33268e-05 -7.23361e-06 0
-7.80099e-06 -1.0331e-05 0
-2.33268e-05 -7.23361e-06 0
-4.96394e-06 1.70696e-05 0
-1.62412e-05 2.13596e-05 0
-4.96394e-06 1.70696e-05 0
-1.62412e-05 2.13596e-05 0
-2.31182e-06 -2.28769e-05 0
-9.31353e-06 -1.89288e-05 0
-2.31182e-06 -2.28769e-05 0
-9.31353e-06 -1.89288e-05 0
2.80785e-07 3.09342e-05 0
-3.5971e-06 3.34296e-05 0
2.80785e-07 3.09342e-05 0
-3.5971e-06 3.34296e-05 0
1.13261e-06 -5.46301e-05 0
-5.78226e-07 -5.25829e-05 0
1.13261e-06 -5.46301e-05 0
-5.78226e-07 -5.25829e-05 0
2.90139e-06 4.68273e-05 0
2.29575e-06 4.58971e-05 0
2.90139e-06 4.68273e-05 0
2.29575e-06 4.58971e-05 0
-3.49576e-07 -0.000126905 0
-1.61476e-06 -0.000126571 0
-3.49576e-07 -0.000126905 0
-1.61476e-06 -0.000126571 0
2.88714e-06 3.85981e-05 0
2.68025e-06 3.92862e-05 0
2.88714e-06 3.85981e-05 0
2.68025e-06 3.92862e-05 0
2.59367e-07 -0.000339304 0
-1.05292e-06 -0.000337433 0
2.59367e-07 -0.000339304 0
-1.05292e-06 -0.000337433 0
5.60324e-06 -0.000111486 0
6.05856e-06 -0.000110775 0
5.60324e-06 -0.000111486 0
6.05856e-06 -0.000110775 0
-2.67228e-06 -0.000883578 0
-1.84395e-06 -0.000884532 0
-2.67228e-06 -0.000883578 0
-1.84395e-06 -0.000884532 0
-1.88087e-06 -0.000545204 0
-1.12047e-06 -0.000545603 0
-1.88087e-06 -0.000545204 0
-1.12047e-06 -0.000545603 0
-6.39148e-06 -0.00170622 0
-3.88859e-06 -0.0017082 0
0.0122879 -0.0099064 0
0.0131359 -0.0055512 0
0.0216785 -0.0201646 0
0.0261372 -0.00909417 0
0.0122879 -0.0099064 0
0.00550152 -0.00545895 0
0.0131359 -0.0055512 0
0.00571567 -0.00286263 0
0.00550152 -0.00545895 0
0.00251109 -0.00303648 0
0.00571567 -0.00286263 0
0.00288925 -0.0018622 0
0.000673038 -0.00176417 0
0.00105142 -0.000871016 0
0.00251109 -0.00303648 0
0.00288925 -0.0018622 0
3.15163e-05 -0.00116966 0
0.000432072 -0.000650162 0
0.000673038 -0.00176417 0
0.00105142 -0.000871016 0
3.15163e-05 -0.00116966 0
-0.00040911 -0.000842401 0
0.000432072 -0.000650162 0
-2.99641e-05 -0.000329347 0
-0.00040911 -0.000842401 0
-0.000507802 -0.000727462 0
-2.99641e-05 -0.000329347 0
-0.000128231 -0.000319299 0
-0.000604883 -0.00063418 0
-0.000223304 -0.000230162 0
-0.000507802 -0.000727462 0
-0.000128231 -0.000319299 0
-0.000604883 -0.00063418 0
-0.000593135 -0.000617399 0
-0.000223304 -0.000230162 0
-0.000231895 -0.000252002 0
-0.000593135 -0.000617399 0
-0.000606098 -0.000592294 0
-0.000231895 -0.000252002 0
-0.000247232 -0.00021847 0
-0.000606098 -0.000592294 0
-0.00058883 -0.000589415 0
-0.000247232 -0.00021847 0