# vtk DataFile Version 3.0
#This file was generated by the deal.II library on 2016/12/20 at 10:57:13
ASCII
DATASET UNSTRUCTURED_GRID

POINTS 7600 double
0.12 -0.5 0
0.15 -0.5 0
0.119014 -0.4708 0
0.15 -0.471429 0
0.11755 -0.441479 0
0.119014 -0.4708 0
0.15 -0.442857 0
0.15 -0.471429 0
0.117242 -0.412206 0
0.11755 -0.441479 0
0.15 -0.414286 0
0.15 -0.442857 0
0.118129 -0.383064 0
0.117242 -0.412206 0
0.15 -0.385714 0
0.15 -0.414286 0
0.12021 -0.354337 0
0.118129 -0.383064 0
0.15 -0.357143 0
0.15 -0.385714 0
0.121793 -0.32584 0
0.12021 -0.354337 0
0.15 -0.328571 0
0.15 -0.357143 0
0.122717 -0.296869 0
0.121793 -0.32584 0
0.15 -0.3 0
0.15 -0.328571 0
0.123759 -0.266752 0
0.122717 -0.296869 0
0.153091 -0.267708 0
0.15 -0.3 0
0.18456 -0.26795 0
0.153091 -0.267708 0
0.183333 -0.3 0
0.15 -0.3 0
0.216606 -0.268111 0
0.18456 -0.26795 0
0.216667 -0.3 0
0.183333 -0.3 0
0.24835 -0.26841 0
0.216606 -0.268111 0
0.25 -0.3 0
0.216667 -0.3 0
0.278782 -0.268564 0
0.24835 -0.26841 0
0.279437 -0.298917 0
0.25 -0.3 0
0.279638 -0.328111 0
0.279437 -0.298917 0
0.25 -0.328571 0
0.25 -0.3 0
0.27971 -0.356801 0
0.279638 -0.328111 0
0.25 -0.357143 0
0.25 -0.328571 0
0.279677 -0.385395 0
0.27971 -0.356801 0
0.25 -0.385714 0
0.25 -0.357143 0
0.279641 -0.413938 0
0.279677 -0.385395 0
0.25 -0.414286 0
0.25 -0.385714 0
0.279666 -0.442534 0
0.279641 -0.413938 0
0.25 -0.442857 0
0.25 -0.414286 0
0.279811 -0.471266 0
0.279666 -0.442534 0
0.25 -0.471429 0
0.25 -0.442857 0
0.28 -0.5 0
0.279811 -0.471266 0
0.25 -0.5 0
0.25 -0.471429 0
0.970149 0.5 0
0.970096 0.46978 0
1 0.5 0
1 0.469697 0
0.940299 0.5 0
0.940231 0.46984 0
0.970149 0.5 0
0.970096 0.46978 0
0.910448 0.5 0
0.910371 0.469856 0
0.940299 0.5 0
0.940231 0.46984 0
0.880597 0.5 0
0.880527 0.469909 0
0.910448 0.5 0
0.910371 0.469856 0
0.850746 0.5 0
0.850684 0.469926 0
0.880597 0.5 0
0.880527 0.469909 0
0.820896 0.5 0
0.820842 0.469978 0
0.850746 0.5 0
0.850684 0.469926 0
0.791045 0.5 0
0.791001 0.470016 0
0.820896 0.5 0
0.820842 0.469978 0
0.761194 0.5 0
0.761159 0.470055 0
0.791045 0.5 0
0.791001 0.470016 0
0.731343 0.5 0
0.731316 0.470091 0
0.761194 0.5 0
0.761159 0.470055 0
0.701493 0.5 0
0.701472 0.470118 0
0.731343 0.5 0
0.731316 0.470091 0
0.671642 0.5 0
0.671627 0.470134 0
0.701493 0.5 0
0.701472 0.470118 0
0.641791 0.5 0
0.64178 0.470142 0
0.671642 0.5 0
0.671627 0.470134 0
0.641791 0.5 0
0.61194 0.5 0
0.64178 0.470142 0
0.611934 0.470065 0
0.58209 0.5 0
0.582089 0.470002 0
0.61194 0.5 0
0.611934 0.470065 0
0.552239 0.5 0
0.552248 0.469853 0
0.58209 0.5 0
0.582089 0.470002 0
0.522388 0.5 0
0.522413 0.469718 0
0.552239 0.5 0
0.552248 0.469853 0
0.492537 0.5 0
0.492577 0.469656 0
0.522388 0.5 0
0.522413 0.469718 0
0.462687 0.5 0
0.462743 0.469571 0
0.492537 0.5 0
0.492577 0.469656 0
0.432836 0.5 0
0.432895 0.46963 0
0.462687 0.5 0
0.462743 0.469571 0
0.402985 0.5 0
0.403046 0.469669 0
0.432836 0.5 0
0.432895 0.46963 0
0.373134 0.5 0
0.373191 0.469745 0
0.402985 0.5 0
0.403046 0.469669 0
0.343284 0.5 0
0.343335 0.469723 0
0.373134 0.5 0
0.373191 0.469745 0
0.313433 0.5 0
0.313478 0.469741 0
0.343284 0.5 0
0.343335 0.469723 0
0.283582 0.5 0
0.283622 0.469783 0
0.313433 0.5 0
0.313478 0.469741 0
0.253731 0.5 0
0.253768 0.469742 0
0.283582 0.5 0
0.283622 0.469783 0
0.223881 0.5 0
0.223918 0.469737 0
0.253731 0.5 0
0.253768 0.469742 0
0.19403 0.5 0
0.194064 0.46981 0
0.223881 0.5 0
0.223918 0.469737 0
0.164179 0.5 0
0.16421 0.469881 0
0.19403 0.5 0
0.194064 0.46981 0
0.134328 0.5 0
0.134355 0.46994 0
0.164179 0.5 0
0.16421 0.469881 0
0.104478 0.5 0
0.1045 0.469997 0
0.134328 0.5 0
0.134355 0.46994 0
0.074627 0.5 0
0.074645 0.470051 0
0.104478 0.5 0
0.1045 0.469997 0
0.044776 0.5 0
0.04479 0.470093 0
0.074627 0.5 0
0.074645 0.470051 0
0.014925 0.5 0
0.014935 0.47012 0
0.044776 0.5 0
0.04479 0.470093 0
-0.014925 0.5 0
-0.014918 0.470135 0
0.014925 0.5 0
0.014935 0.47012 0
-0.044776 0.5 0
-0.044771 0.470143 0
-0.014925 0.5 0
-0.014918 0.470135 0
-0.074627 0.5 0
-0.074623 0.470146 0
-0.044776 0.5 0
-0.044771 0.470143 0
-0.104478 0.5 0
-0.104496 0.469979 0
-0.074627 0.5 0
-0.074623 0.470146 0
-0.134328 0.5 0
-0.134359 0.469935 0
-0.104478 0.5 0
-0.104496 0.469979 0
-0.164179 0.5 0
-0.164225 0.469839 0
-0.134328 0.5 0
-0.134359 0.469935 0
-0.164179 0.5 0
-0.19403 0.5 0
-0.164225 0.469839 0
-0.194083 0.469797 0
-0.223881 0.5 0
-0.22394 0.469753 0
-0.19403 0.5 0
-0.194083 0.469797 0
-0.253731 0.5 0
-0.253798 0.469819 0
-0.223881 0.5 0
-0.22394 0.469753 0
-0.283582 0.5 0
-0.283647 0.470019 0
-0.253731 0.5 0
-0.253798 0.469819 0
-0.313433 0.5 0
-0.313491 0.470151 0
-0.283582 0.5 0
-0.283647 0.470019 0
-0.343284 0.5 0
-0.343348 0.470381 0
-0.313433 0.5 0
-0.313491 0.470151 0
-0.343284 0.5 0
-0.373134 0.5 0
-0.343348 0.470381 0
-0.373195 0.470395 0
-0.373134 0.5 0
-0.402985 0.5 0
-0.373195 0.470395 0
-0.403049 0.470404 0
-0.432836 0.5 0
-0.432937 0.470297 0
-0.402985 0.5 0
-0.403049 0.470404 0
-0.462687 0.5 0
-0.462848 0.469995 0
-0.432836 0.5 0
-0.432937 0.470297 0
-0.492537 0.5 0
-0.492807 0.469765 0
-0.462687 0.5 0
-0.462848 0.469995 0
-0.522388 0.5 0
-0.52276 0.46958 0
-0.492537 0.5 0
-0.492807 0.469765 0
-0.552239 0.5 0
-0.55273 0.469652 0
-0.522388 0.5 0
-0.52276 0.46958 0
-0.58209 0.5 0
-0.582662 0.469731 0
-0.552239 0.5 0
-0.55273 0.469652 0
-0.61194 0.5 0
-0.612594 0.469999 0
-0.58209 0.5 0
-0.582662 0.469731 0
-0.641791 0.5 0
-0.642647 0.470419 0
-0.61194 0.5 0
-0.612594 0.469999 0
-0.671642 0.5 0
-0.672638 0.470543 0
-0.641791 0.5 0
-0.642647 0.470419 0
-0.701493 0.5 0
-0.702968 0.4698 0
-0.671642 0.5 0
-0.672638 0.470543 0
-0.701493 0.5 0
-0.731343 0.5 0
-0.702968 0.4698 0
-0.733232 0.468149 0
-0.731343 0.5 0
-0.761194 0.5 0
-0.733232 0.468149 0
-0.765399 0.466448 0
-0.791045 0.5 0
-0.795702 0.469563 0
-0.761194 0.5 0
-0.765399 0.466448 0
-0.820896 0.5 0
-0.822797 0.47207 0
-0.791045 0.5 0
-0.795702 0.469563 0
0.31 -0.5 0
0.309694 -0.471123 0
0.28 -0.5 0
0.279811 -0.471266 0
0.31 -0.5 0
0.34 -0.5 0
0.309694 -0.471123 0
0.339686 -0.471033 0
0.37 -0.5 0
0.369721 -0.471055 0
0.34 -0.5 0
0.339686 -0.471033 0
0.37 -0.5 0
0.4 -0.5 0
0.369721 -0.471055 0
0.399756 -0.470957 0
0.4 -0.5 0
0.43 -0.5 0
0.399756 -0.470957 0
0.429805 -0.470822 0
0.43 -0.5 0
0.46 -0.5 0
0.429805 -0.470822 0
0.459835 -0.470712 0
0.46 -0.5 0
0.49 -0.5 0
0.459835 -0.470712 0
0.489873 -0.470554 0
0.49 -0.5 0
0.52 -0.5 0
0.489873 -0.470554 0
0.519906 -0.470379 0
0.52 -0.5 0
0.55 -0.5 0
0.519906 -0.470379 0
0.54993 -0.470248 0
0.55 -0.5 0
0.58 -0.5 0
0.54993 -0.470248 0
0.579948 -0.470155 0
0.58 -0.5 0
0.61 -0.5 0
0.579948 -0.470155 0
0.609962 -0.470091 0
0.61 -0.5 0
0.64 -0.5 0
0.609962 -0.470091 0
0.639972 -0.47005 0
0.64 -0.5 0
0.67 -0.5 0
0.639972 -0.47005 0
0.66998 -0.470026 0
0.67 -0.5 0
0.7 -0.5 0
0.66998 -0.470026 0
0.699986 -0.470013 0
0.7 -0.5 0
0.73 -0.5 0
0.699986 -0.470013 0
0.72999 -0.470006 0
0.73 -0.5 0
0.76 -0.5 0
0.72999 -0.470006 0
0.759994 -0.470003 0
0.76 -0.5 0
0.79 -0.5 0
0.759994 -0.470003 0
0.78998 -0.469916 0
0.79 -0.5 0
0.82 -0.5 0
0.78998 -0.469916 0
0.819956 -0.469877 0
0.82 -0.5 0
0.85 -0.5 0
0.819956 -0.469877 0
0.849929 -0.469833 0
0.85 -0.5 0
0.88 -0.5 0
0.849929 -0.469833 0
0.879924 -0.469805 0
0.88 -0.5 0
0.91 -0.5 0
0.879924 -0.469805 0
0.909913 -0.469792 0
0.91 -0.5 0
0.94 -0.5 0
0.909913 -0.469792 0
0.939922 -0.469775 0
0.94 -0.5 0
0.97 -0.5 0
0.939922 -0.469775 0
0.969956 -0.46974 0
0.97 -0.5 0
1 -0.5 0
0.969956 -0.46974 0
1 -0.469697 0
-0.489362 -0.010638 0
-0.468085 -0.031915 0
-0.467791 0.011178 0
-0.446536 -0.010172 0
-0.446809 -0.053191 0
-0.42524 -0.031466 0
-0.468085 -0.031915 0
-0.446536 -0.010172 0
-0.425532 -0.074468 0
-0.404012 -0.052824 0
-0.446809 -0.053191 0
-0.42524 -0.031466 0
-0.425532 -0.074468 0
-0.404255 -0.095745 0
-0.404012 -0.052824 0
-0.382783 -0.074175 0
-0.404255 -0.095745 0
-0.382979 -0.117021 0
-0.382783 -0.074175 0
-0.361545 -0.095511 0
-0.382979 -0.117021 0
-0.361702 -0.138298 0
-0.361545 -0.095511 0
-0.340288 -0.116831 0
-0.361702 -0.138298 0
-0.340426 -0.159574 0
-0.340288 -0.116831 0
-0.319034 -0.138159 0
-0.340426 -0.159574 0
-0.319149 -0.180851 0
-0.319034 -0.138159 0
-0.297766 -0.159484 0
-0.319149 -0.180851 0
-0.297872 -0.202128 0
-0.297766 -0.159484 0
-0.276489 -0.180797 0
-0.297872 -0.202128 0
-0.276596 -0.223404 0
-0.276489 -0.180797 0
-0.255087 -0.202105 0
-0.255319 -0.244681 0
-0.233674 -0.223466 0
-0.276596 -0.223404 0
-0.255087 -0.202105 0
-0.234043 -0.265957 0
-0.212119 -0.244916 0
-0.255319 -0.244681 0
-0.233674 -0.223466 0
-0.234043 -0.265957 0
-0.212766 -0.287234 0
-0.212119 -0.244916 0
-0.190657 -0.266392 0
-0.191489 -0.308511 0
-0.169261 -0.287934 0
-0.212766 -0.287234 0
-0.190657 -0.266392 0
-0.170213 -0.329787 0
-0.147854 -0.309624 0
-0.191489 -0.308511 0
-0.169261 -0.287934 0
-0.170213 -0.329787 0
-0.148936 -0.351064 0
-0.147854 -0.309624 0
-0.126431 -0.331364 0
-0.12766 -0.37234 0
-0.105256 -0.353368 0
-0.148936 -0.351064 0
-0.126431 -0.331364 0
-0.12766 -0.37234 0
-0.106383 -0.393617 0
-0.105256 -0.353368 0
-0.083924 -0.375263 0
-0.106383 -0.393617 0
-0.085106 -0.414894 0
-0.083924 -0.375263 0
-0.062097 -0.396824 0
-0.085106 -0.414894 0
-0.06383 -0.43617 0
-0.062097 -0.396824 0
-0.040132 -0.418076 0
-0.06383 -0.43617 0
-0.042553 -0.457447 0
-0.040132 -0.418076 0
-0.019646 -0.439891 0
-0.042553 -0.457447 0
-0.021277 -0.478723 0
-0.019646 -0.439891 0
-0.002475 -0.461393 0
-0.021277 -0.478723 0
0 -0.5 0
-0.002475 -0.461393 0
0.009599 -0.478226 0
0 -0.5 0
0.03 -0.5 0
0.009599 -0.478226 0
0.029922 -0.474701 0
0.03 -0.5 0
0.06 -0.5 0
0.029922 -0.474701 0
0.057397 -0.471689 0
0.06 -0.5 0
0.09 -0.5 0
0.057397 -0.471689 0
0.08796 -0.470463 0
0.09 -0.5 0
0.12 -0.5 0
0.08796 -0.470463 0
0.119014 -0.4708 0
0.969956 -0.46974 0
1 -0.469697 0
0.969923 -0.439465 0
1 -0.439394 0
0.969923 -0.439465 0
1 -0.439394 0
0.969894 -0.409159 0
1 -0.409091 0
0.969894 -0.409159 0
1 -0.409091 0
0.969889 -0.37886 0
1 -0.378788 0
0.969889 -0.37886 0
1 -0.378788 0
0.969858 -0.348548 0
1 -0.348485 0
0.969858 -0.348548 0
1 -0.348485 0
0.969843 -0.318237 0
[...]
POINT_DATA 7600
VECTORS momentum double
0.00156492 -0.000358183 0
0.000124283 -0.000300113 0
0.00182102 -0.0015937 0
0.000138242 -0.00158293 0
0.00173272 -0.00166243 0
0.00182102 -0.0015937 0
0.0001124 -0.00135508 0
0.000138242 -0.00158293 0
0.00233521 -0.00243519 0
0.00173272 -0.00166243 0
0.000156075 -0.00263123 0
0.0001124 -0.00135508 0
0.00251564 -0.00189267 0
0.00233521 -0.00243519 0
-0.000106711 -0.00136936 0
0.000156075 -0.00263123 0
0.00340702 -0.0015829 0
0.00251564 -0.00189267 0
0.00052779 -0.00217433 0
-0.000106711 -0.00136936 0
0.00378248 0.000451285 0
0.00340702 -0.0015829 0
-0.00177689 0.0016684 0
0.00052779 -0.00217433 0
0.00883894 0.00299081 0
0.00378248 0.000451285 0
0.00686511 0.00250278 0
-0.00177689 0.0016684 0
0.013247 0.000233788 0
0.00883894 0.00299081 0
0.0160811 0.000227612 0
0.00686511 0.00250278 0
0.0131422 -0.00488654 0
0.0160811 0.000227612 0
0.0135653 -0.00271529 0
0.00686511 0.00250278 0
0.0129297 -9.13801e-06 0
0.0131422 -0.00488654 0
0.013111 0.00196726 0
0.0135653 -0.00271529 0
0.015674 -0.00555826 0
0.0129297 -9.13801e-06 0
0.00686425 -0.00529351 0
0.013111 0.00196726 0
0.010253 -0.00709352 0
0.015674 -0.00555826 0
0.00576329 -0.0112241 0
0.00686425 -0.00529351 0
0.000160986 -0.00696004 0
0.00576329 -0.0112241 0
-0.00222229 -0.00835072 0
0.00686425 -0.00529351 0
0.00128295 -0.00538631 0
0.000160986 -0.00696004 0
0.000650385 -0.00385204 0
-0.00222229 -0.00835072 0
0.000201699 -0.00382121 0
0.00128295 -0.00538631 0
-0.000285052 -0.00476469 0
0.000650385 -0.00385204 0
0.000619089 -0.00294781 0
0.000201699 -0.00382121 0
0.000146376 -0.0024532 0
-0.000285052 -0.00476469 0
0.000123495 -0.00199294 0
0.000619089 -0.00294781 0
-7.4181e-05 -0.00232495 0
0.000146376 -0.0024532 0
0.000315927 -0.00140482 0
0.000123495 -0.00199294 0
4.91647e-05 -0.00124475 0
-7.4181e-05 -0.00232495 0
0.000162802 -0.000523713 0
0.000315927 -0.00140482 0
-2.52445e-05 -0.000639744 0
4.91647e-05 -0.00124475 0
-0.000297708 -0.000647887 0
-0.00029027 -0.00175828 0
-0.000280271 -0.000648089 0
-0.000270041 -0.00175959 0
-0.000314426 -0.000648404 0
-0.000310109 -0.00175925 0
-0.000297708 -0.000647887 0
-0.00029027 -0.00175828 0
-0.000325444 -0.000648025 0
-0.000320921 -0.00176121 0
-0.000314426 -0.000648404 0
-0.000310109 -0.00175925 0
-0.000334536 -0.000647162 0
-0.000330851 -0.00176243 0
-0.000325444 -0.000648025 0
-0.000320921 -0.00176121 0
-0.000337552 -0.000646435 0
-0.00033338 -0.00176374 0
-0.000334536 -0.000647162 0
-0.000330851 -0.00176243 0
-0.000337137 -0.000644997 0
-0.000332889 -0.0017644 0
-0.000337552 -0.000646435 0
-0.00033338 -0.00176374 0
-0.00032869 -0.000644199 0
-0.000325145 -0.00176508 0
-0.000337137 -0.000644997 0
-0.000332889 -0.0017644 0
-0.000314516 -0.000642572 0
-0.000311002 -0.00176616 0
-0.00032869 -0.000644199 0
-0.000325145 -0.00176508 0
-0.000289044 -0.00064124 0
-0.000288509 -0.00176689 0
-0.000314516 -0.000642572 0
-0.000311002 -0.00176616 0
-0.000253591 -0.000640303 0
-0.000254714 -0.00176727 0
-0.000289044 -0.00064124 0
-0.000288509 -0.00176689 0
-0.000202546 -0.000638842 0
-0.000207323 -0.00176614 0
-0.000253591 -0.000640303 0
-0.000254714 -0.00176727 0
-0.000134588 -0.00063785 0
-0.000147105 -0.00176424 0
-0.000202546 -0.000638842 0
-0.000207323 -0.00176614 0
-0.000134588 -0.00063785 0
-4.95116e-05 -0.000638017 0
-0.000147105 -0.00176424 0
-6.50443e-05 -0.00176069 0
6.02066e-05 -0.000637907 0
4.02686e-05 -0.0017558 0
-4.95116e-05 -0.000638017 0
-6.50443e-05 -0.00176069 0
0.000197388 -0.00063999 0
0.00017717 -0.00174622 0
6.02066e-05 -0.000637907 0
4.02686e-05 -0.0017558 0
0.00036612 -0.00064184 0
0.000358026 -0.00172951 0
0.000197388 -0.00063999 0
0.00017717 -0.00174622 0
0.000583548 -0.000642186 0
0.000585621 -0.00170428 0
0.00036612 -0.00064184 0
0.000358026 -0.00172951 0
0.000848907 -0.00064307 0
0.000867458 -0.0016724 0
0.000583548 -0.000642186 0
0.000585621 -0.00170428 0
0.00117425 -0.000642521 0
0.00121399 -0.00163566 0
0.000848907 -0.00064307 0
0.000867458 -0.0016724 0
0.00157862 -0.000640462 0
0.00163594 -0.00159483 0
0.00117425 -0.000642521 0
0.00121399 -0.00163566 0
0.00207485 -0.000637596 0
0.00214264 -0.00155318 0
0.00157862 -0.000640462 0
0.00163594 -0.00159483 0
0.00266684 -0.000636485 0
0.00274489 -0.00150608 0
0.00207485 -0.000637596 0
0.00214264 -0.00155318 0
0.00334977 -0.000635183 0
0.00344549 -0.0014581 0
0.00266684 -0.000636485 0
0.00274489 -0.00150608 0
0.00411972 -0.000634461 0
0.00422779 -0.00140208 0
0.00334977 -0.000635183 0
0.00344549 -0.0014581 0
0.00495929 -0.000634648 0
0.00507985 -0.00133727 0
0.00411972 -0.000634461 0
0.00422779 -0.00140208 0
0.00582391 -0.000637127 0
0.005966 -0.00126629 0
0.00495929 -0.000634648 0
0.00507985 -0.00133727 0
0.00668551 -0.000640027 0
0.0068577 -0.00119329 0
0.00582391 -0.000637127 0
0.005966 -0.00126629 0
0.00749355 -0.000638097 0
0.00769346 -0.00112194 0
0.00668551 -0.000640027 0
0.0068577 -0.00119329 0
0.00820117 -0.000634272 0
0.00842066 -0.00104796 0
0.00749355 -0.000638097 0
0.00769346 -0.00112194 0
0.00872115 -0.000628936 0
0.00895604 -0.000968716 0
0.00820117 -0.000634272 0
0.00842066 -0.00104796 0
0.00900061 -0.000622336 0
0.00924434 -0.000879056 0
0.00872115 -0.000628936 0
0.00895604 -0.000968716 0
0.00893719 -0.000615432 0
0.00917942 -0.00077328 0
0.00900061 -0.000622336 0
0.00924434 -0.000879056 0
0.00848726 -0.000610855 0
0.00872169 -0.000638148 0
0.00893719 -0.000615432 0
0.00917942 -0.00077328 0
0.00753193 -0.000605896 0
0.00775863 -0.00046897 0
0.00848726 -0.000610855 0
0.00872169 -0.000638148 0
0.00605294 -0.000599219 0
0.00626182 -0.000242475 0
0.00753193 -0.000605896 0
0.00775863 -0.00046897 0
0.00390674 -0.000591058 0
0.00408517 4.98567e-05 0
0.00605294 -0.000599219 0
0.00626182 -0.000242475 0
0.00107825 -0.00058231 0
0.00122977 0.000439686 0
0.00390674 -0.000591058 0
0.00408517 4.98567e-05 0
-0.00259442 -0.000571853 0
-0.00247817 0.000916246 0
0.00107825 -0.00058231 0
0.00122977 0.000439686 0
-0.00709311 -0.000560873 0
-0.00702014 0.00150436 0
-0.00259442 -0.000571853 0
-0.00247817 0.000916246 0
-0.00709311 -0.000560873 0
-0.0126258 -0.000545787 0
-0.00702014 0.00150436 0
-0.0126014 0.00218783 0
-0.0191611 -0.000524876 0
-0.0191883 0.0029751 0
-0.0126258 -0.000545787 0
-0.0126014 0.00218783 0
-0.0269443 -0.000496932 0
-0.0270576 0.00386704 0
-0.0191611 -0.000524876 0
-0.0191883 0.0029751 0
-0.0359899 -0.000463003 0
-0.0362155 0.00486729 0
-0.0269443 -0.000496932 0
-0.0270576 0.00386704 0
-0.0465909 -0.000422454 0
-0.0469892 0.00595784 0
-0.0359899 -0.000463003 0
-0.0362155 0.00486729 0
-0.0587456 -0.000388114 0
-0.0593737 0.0071305 0
-0.0465909 -0.000422454 0
-0.0469892 0.00595784 0
-0.0587456 -0.000388114 0
-0.0727228 -0.000341805 0
-0.0593737 0.0071305 0
-0.0736761 0.00842171 0
-0.0727228 -0.000341805 0
-0.0885214 -0.000320779 0
-0.0736761 0.00842171 0
-0.0898178 0.00977728 0
-0.106186 -0.000270086 0
-0.107925 0.0111502 0
-0.0885214 -0.000320779 0
-0.0898178 0.00977728 0
-0.125705 -0.000256898 0
-0.127805 0.0126374 0
-0.106186 -0.000270086 0
-0.107925 0.0111502 0
-0.146628 -0.00017063 0
-0.149303 0.013902 0
-0.125705 -0.000256898 0
-0.127805 0.0126374 0
-0.168727 -0.00018836 0
-0.171902 0.0148894 0
-0.146628 -0.00017063 0
-0.149303 0.013902 0
-0.190622 -0.000115556 0
-0.194378 0.0151868 0
-0.168727 -0.00018836 0
-0.171902 0.0148894 0
-0.212006 -0.000176118 0
-0.216072 0.0154542 0
-0.190622 -0.000115556 0
-0.194378 0.0151868 0
-0.231157 -0.000132118 0
-0.235362 0.0157926 0
-0.212006 -0.000176118 0
-0.216072 0.0154542 0
-0.248567 -0.000312608 0
-0.252951 0.0171144 0
-0.231157 -0.000132118 0
-0.235362 0.0157926 0
-0.263062 -0.000135695 0
-0.265714 0.0185605 0
-0.248567 -0.000312608 0
-0.252951 0.0171144 0
-0.2746 0.000273959 0
-0.278422 0.0221833 0
-0.263062 -0.000135695 0
-0.265714 0.0185605 0
-0.2746 0.000273959 0
-0.285935 0.000388066 0
-0.278422 0.0221833 0
-0.284856 0.0243714 0
-0.285935 0.000388066 0
-0.289302 -7.1267e-05 0
-0.284856 0.0243714 0
-0.293952 0.0196585 0
-0.283419 -0.000868898 0
-0.288446 -0.000438239 0
-0.289302 -7.1267e-05 0
-0.293952 0.0196585 0
-0.262837 -0.000527764 0
-0.25811 -0.0156369 0
-0.283419 -0.000868898 0
-0.288446 -0.000438239 0
0.000385278 -0.000489584 0
0.000474638 -0.00138948 0
0.000162802 -0.000523713 0
0.000315927 -0.00140482 0
0.000385278 -0.000489584 0
0.000515734 -0.000435771 0
0.000474638 -0.00138948 0
0.000586379 -0.00138593 0
0.000603077 -0.000438719 0
0.000635618 -0.00129106 0
0.000515734 -0.000435771 0
0.000586379 -0.00138593 0
0.000603077 -0.000438719 0
0.000606719 -0.000419751 0
0.000635618 -0.00129106 0
0.000637194 -0.00123877 0
0.000606719 -0.000419751 0
0.000580379 -0.000427128 0
0.000637194 -0.00123877 0
0.000590664 -0.00115957 0
0.000580379 -0.000427128 0
0.000498831 -0.000419157 0
0.000590664 -0.00115957 0
0.000514143 -0.00111802 0
0.000498831 -0.000419157 0
0.000412892 -0.000422427 0
0.000514143 -0.00111802 0
0.000414166 -0.0010695 0
0.000412892 -0.000422427 0
0.000302167 -0.00042005 0
0.000414166 -0.0010695 0
0.000301406 -0.00104457 0
0.000302167 -0.00042005 0
0.000197293 -0.000423673 0
0.000301406 -0.00104457 0
0.00019286 -0.0010164 0
0.000197293 -0.000423673 0
8.62403e-05 -0.000423307 0
0.00019286 -0.0010164 0
8.53553e-05 -0.00100309 0
8.62403e-05 -0.000423307 0
-8.43546e-06 -0.000425056 0
8.53553e-05 -0.00100309 0
-9.53881e-06 -0.000988449 0
-8.43546e-06 -0.000425056 0
-9.93987e-05 -0.00042508 0
-9.53881e-06 -0.000988449 0
-9.79212e-05 -0.000982261 0
-9.93987e-05 -0.00042508 0
-0.000172464 -0.000425709 0
-9.79212e-05 -0.000982261 0
-0.000169696 -0.000975394 0
-0.000172464 -0.000425709 0
-0.000238593 -0.00042554 0
-0.000169696 -0.000975394 0
-0.000234227 -0.000973449 0
-0.000238593 -0.00042554 0
-0.000287632 -0.000425812 0
-0.000234227 -0.000973449 0
-0.000283671 -0.00097137 0
-0.000287632 -0.000425812 0
-0.000328236 -0.000425784 0
-0.000283671 -0.00097137 0
-0.000327522 -0.000972529 0
-0.000328236 -0.000425784 0
-0.000357362 -0.000426592 0
-0.000327522 -0.000972529 0
-0.00035859 -0.000972987 0
-0.000357362 -0.000426592 0
-0.00038255 -0.000427402 0
-0.00035859 -0.000972987 0
-0.000383022 -0.000975516 0
-0.00038255 -0.000427402 0
-0.000397551 -0.000428419 0
-0.000383022 -0.000975516 0
-0.000397146 -0.000978105 0
-0.000397551 -0.000428419 0
-0.000409951 -0.000429183 0
-0.000397146 -0.000978105 0
-0.000407916 -0.000981624 0
-0.000409951 -0.000429183 0
-0.000412955 -0.000429548 0
-0.000407916 -0.000981624 0
-0.000410542 -0.000985129 0
-0.000412955 -0.000429548 0
-0.000412983 -0.000430061 0
-0.000410542 -0.000985129 0
-0.000410768 -0.000988473 0
-0.000412983 -0.000430061 0
-0.000405851 -0.000430143 0
-0.000410768 -0.000988473 0
-0.000404149 -0.000990803 0
-0.000405851 -0.000430143 0
-0.00039888 -0.000430092 0
-0.000404149 -0.000990803 0
-0.000398185 -0.000992072 0
0.2755 -0.268936 0
0.171666 -0.1651 0
0.294088 -0.111738 0
0.19464 -0.104345 0
0.122561 -0.121832 0
0.139508 -0.0885732 0
0.171666 -0.1651 0
0.19464 -0.104345 0
0.0952138 -0.0945977 0
0.10629 -0.0748556 0
0.122561 -0.121832 0
0.139508 -0.0885732 0
0.0952138 -0.0945977 0
0.0767495 -0.0767709 0
0.10629 -0.0748556 0
0.0842219 -0.0630747 0
0.0767495 -0.0767709 0
0.0639476 -0.0639908 0
0.0842219 -0.0630747 0
0.069024 -0.054504 0
0.0639476 -0.0639908 0
0.0543267 -0.0545556 0
0.069024 -0.054504 0
0.0579067 -0.047341 0
0.0543267 -0.0545556 0
0.0471084 -0.047353 0
0.0579067 -0.047341 0
0.0496071 -0.0419009 0
0.0471084 -0.047353 0
0.0413844 -0.0417027 0
0.0496071 -0.0419009 0
0.043182 -0.0372971 0
0.0413844 -0.0417027 0
0.0368558 -0.0371856 0
0.043182 -0.0372971 0
0.0381206 -0.033629 0
0.0368558 -0.0371856 0
0.0331153 -0.033478 0
0.0381206 -0.033629 0
0.0340072 -0.0304777 0
0.0300181 -0.0303811 0
0.0306181 -0.0278419 0
0.0331153 -0.033478 0
0.0340072 -0.0304777 0
0.0273266 -0.0276999 0
0.0276892 -0.0254919 0
0.0300181 -0.0303811 0
0.0306181 -0.0278419 0
0.0273266 -0.0276999 0
0.0249796 -0.0253619 0
0.0276892 -0.0254919 0
0.0251522 -0.0234037 0
0.022795 -0.0232038 0
0.02283 -0.0214373 0
0.0249796 -0.0253619 0
0.0251522 -0.0234037 0
0.0207759 -0.0212136 0
0.0207329 -0.0195944 0
0.022795 -0.0232038 0
0.02283 -0.0214373 0
0.0207759 -0.0212136 0
0.0187647 -0.0192195 0
0.0207329 -0.0195944 0
0.0186415 -0.0177559 0
0.0168685 -0.0173251 0
0.0166272 -0.0160058 0
0.0187647 -0.0192195 0
0.0186415 -0.0177559 0
0.0168685 -0.0173251 0
0.0149258 -0.0153916 0
0.0166272 -0.0160058 0
0.0145574 -0.01411 0
0.0149258 -0.0153916 0
0.0129888 -0.0134619 0
0.0145574 -0.01411 0
0.0126144 -0.0122836 0
0.0129888 -0.0134619 0
0.0109058 -0.0113593 0
0.0126144 -0.0122836 0
0.0105754 -0.0100474 0
0.0109058 -0.0113593 0
0.00849869 -0.00885033 0
0.0105754 -0.0100474 0
0.00876348 -0.00808676 0
0.00849869 -0.00885033 0
0.0058638 -0.00623853 0
0.00876348 -0.00808676 0
0.00670526 -0.00520563 0
0.0058638 -0.00623853 0
0.00257268 -0.00152251 0
0.00670526 -0.00520563 0
0.00543315 -0.00374387 0
0.00257268 -0.00152251 0
0.00534557 -0.000236858 0
0.00543315 -0.00374387 0
0.00559463 -0.00282106 0
0.00534557 -0.000236858 0
0.00461583 -0.000428415 0
0.00559463 -0.00282106 0
0.00454499 -0.0020841 0
0.00461583 -0.000428415 0
0.00357111 -0.000463379 0
0.00454499 -0.0020841 0
0.003642 -0.00173378 0
0.00357111 -0.000463379 0
0.00156492 -0.000358183 0
0.003642 -0.00173378 0
0.00182102 -0.0015937 0
-0.000404149 -0.000990803 0
-0.000398185 -0.000992072 0
-0.000403621 -0.000717815 0
-0.000399385 -0.000721971 0
-0.000403621 -0.000717815 0
-0.000399385 -0.000721971 0
-0.000407541 -0.00116923 0
-0.000405106 -0.00117299 0
-0.000407541 -0.00116923 0
-0.000405106 -0.00117299 0
-0.000415545 -0.000991861 0
-0.000414122 -0.000997012 0
-0.000415545 -0.000991861 0
-0.000414122 -0.000997012 0
-0.000425405 -0.00135372 0
-0.000427344 -0.00135976 0
-0.000425405 -0.00135372 0
-0.000427344 -0.00135976 0
-0.0004388 -0.0012448 0
-0.000441371 -0.00125088 0
-0.0004388 -0.0012448 0
-0.000441371 -0.00125088 0
-0.000452054 -0.00153297 0
-0.000456722 -0.00153969 0
-0.000468886 -0.00147368 0
-0.000452054 -0.00153297 0
-0.000473613 -0.00148064 0
-0.000456722 -0.00153969 0
-0.000468886 -0.00147368 0
-0.000473613 -0.00148064 0
-0.000487204 -0.00170117 0
-0.000492311 -0.00170859 0
-0.000487204 -0.00170117 0
-0.000492311 -0.00170859 0
-0.000509748 -0.00167771 0
-0.000514538 -0.00168649 0
-0.000509748 -0.00167771 0
-0.000514538 -0.00168649 0
-0.000536869 -0.00185317 0
-0.000542006 -0.00186315 0
-0.000536869 -0.00185317 0
-0.000542006 -0.00186315 0
-0.000569872 -0.00185388 0
-0.00057596 -0.00186641 0
-0.000569872 -0.00185388 0
-0.00057596 -0.00186641 0
-0.000610814 -0.00197907 0
-0.00062121 -0.00199415 0
-0.000610814 -0.00197907 0
-0.00062121 -0.00199415 0
-0.000658959 -0.00198993 0
-0.000676217 -0.00200779 0
-0.000658959 -0.00198993 0
-0.000676217 -0.00200779 0
-0.000714846 -0.00205686 0
-0.000744423 -0.00207741 0
-0.000714846 -0.00205686 0
-0.000744423 -0.00207741 0
-0.000773086 -0.00205969 0
-0.000819573 -0.00208106 0
-0.000773086 -0.00205969 0
-0.000819573 -0.00208106 0
-0.000827644 -0.00205274 0
-0.000894957 -0.00207259 0
-0.000827644 -0.00205274 0
-0.000894957 -0.00207259 0
-0.000865697 -0.00203384 0
-0.000953449 -0.00204749 0
-0.000865697 -0.00203384 0
-0.000953449 -0.00204749 0
-0.000876048 -0.00194737 0
-0.000976629 -0.0019508 0
-0.000876048 -0.00194737 0
-0.000976629 -0.0019508 0
-0.000850574 -0.00192545 0
-0.000948942 -0.00191605 0
-0.000850574 -0.00192545 0
-0.000948942 -0.00191605 0
-0.000792033 -0.00178717 0
-0.000873647 -0.0017694 0
-0.000792033 -0.00178717 0
-0.000873647 -0.0017694 0
-0.000712748 -0.00181306 0
-0.000771052 -0.00179081 0
-0.000712748 -0.00181306 0
-0.000771052 -0.00179081 0
-0.000625579 -0.00164573 0
-0.00066071 -0.00162493 0
-0.000625579 -0.00164573 0
-0.00066071 -0.00162493 0
-0.00054646 -0.00175001 0
-0.000562058 -0.00173154 0
-0.00054646 -0.00175001 0
-0.000562058 -0.00173154 0
-0.000473832 -0.00153235 0
-0.000475499 -0.00152022 0
-0.000473832 -0.00153235 0
-0.000475499 -0.00152022 0
-0.000423648 -0.0017244 0
-0.00041821 -0.00171411 0
-0.000423648 -0.0017244 0
-0.00041821 -0.00171411 0
-0.000373434 -0.00141032 0
-0.000361371 -0.00140289 0
-0.000373434 -0.00141032 0
-0.000361371 -0.00140289 0
-0.000339751 -0.00172208 0
-0.000326289 -0.00171639 0
-0.000339751 -0.00172208 0
-0.000326289 -0.00171639 0
-0.000304255 -0.00124628 0
-0.000286554 -0.00124372 0
-0.000304255 -0.00124628 0
-0.000286554 -0.00124372 0
-0.000295071 -0.00173156 0
-0.000277007 -0.00173223 0
-0.000295071 -0.00173156 0
-0.000277007 -0.00173223 0
-0.000287955 -0.00100283 0
-0.000269211 -0.00100271 0
-0.000287955 -0.00100283 0
-0.000269211 -0.00100271 0
-0.00029027 -0.00175828 0
-0.000270041 -0.00175959 0
0.294088 -0.111738 0
0.19464 -0.104345 0
0.238179 -0.00600224 0
0.182285 -0.0376106 0
0.139508 -0.0885732 0
0.138221 -0.0467542 0
0.19464 -0.104345 0
0.182285 -0.0376106 0
0.10629 -0.0748556 0
0.107452 -0.0473289 0
0.139508 -0.0885732 0
0.138221 -0.0467542 0
0.10629 -0.0748556 0
0.0842219 -0.0630747 0
0.107452 -0.0473289 0
0.0864038 -0.0445522 0
0.0842219 -0.0630747 0
0.069024 -0.054504 0
0.0864038 -0.0445522 0
0.0708124 -0.0409137 0
0.069024 -0.054504 0
0.0579067 -0.047341 0
0.0708124 -0.0409137 0
0.0596072 -0.0373573 0
0.0579067 -0.047341 0
0.0496071 -0.0419009 0
0.0596072 -0.0373573 0
0.0508837 -0.0339642 0
0.0496071 -0.0419009 0
0.043182 -0.0372971 0
0.0508837 -0.0339642 0
0.0442775 -0.0310069 0
0.043182 -0.0372971 0
0.0381206 -0.033629 0
0.0442775 -0.0310069 0
0.0389159 -0.0283602 0
0.0381206 -0.033629 0
0.0340072 -0.0304777 0
0.0389159 -0.0283602 0
0.0346532 -0.0260712 0
0.0306181 -0.0278419 0
0.0310919 -0.0239803 0
0.0340072 -0.0304777 0
0.0346532 -0.0260712 0
0.0276892 -0.0254919 0
0.0281021 -0.0221024 0
0.0306181 -0.0278419 0
0.0310919 -0.0239803 0
0.0276892 -0.0254919 0
0.0251522 -0.0234037 0
0.0281021 -0.0221024 0
0.0254818 -0.0203407 0
0.02283 -0.0214373 0
0.0230381 -0.0187347 0
0.0251522 -0.0234037 0
0.0254818 -0.0203407 0
0.0207329 -0.0195944 0
0.0208382 -0.0171351 0
0.02283 -0.0214373 0
0.0230381 -0.0187347 0
0.0207329 -0.0195944 0
0.0186415 -0.0177559 0
0.0208382 -0.0171351 0
0.0186127 -0.0154616 0
0.0166272 -0.0160058 0
0.0164954 -0.0137561 0
0.0186415 -0.0177559 0
0.0186127 -0.0154616 0
0.0166272 -0.0160058 0
0.0145574 -0.01411 0
0.0164954 -0.0137561 0
0.0142402 -0.0121353 0
0.0145574 -0.01411 0
0.0126144 -0.0122836 0
0.0142402 -0.0121353 0
0.0123499 -0.0102865 0
0.0126144 -0.0122836 0
0.0105754 -0.0100474 0
0.0123499 -0.0102865 0
0.0100946 -0.00832663 0
0.0105754 -0.0100474 0
0.00876348 -0.00808676 0
0.0100946 -0.00832663 0
0.00858519 -0.00624691 0
0.00679864 -0.00357899 0
0.00559463 -0.00282106 0
0.00544157 -0.00317631 0
0.00454499 -0.0020841 0
0.00544157 -0.00317631 0
0.00454499 -0.0020841 0
0.00403227 -0.00245091 0
0.003642 -0.00173378 0
0.00403227 -0.00245091 0
0.003642 -0.00173378 0
0.00173272 -0.00166243 0
0.00182102 -0.0015937 0
0.00475366 -0.00340629 0
0.00403227 -0.00245091 0
0.00233521 -0.00243519 0
0.00173272 -0.00166243 0
0.00528707 -0.00286251 0
0.00475366 -0.00340629 0
0.00251564 -0.00189267 0
0.00233521 -0.00243519 0
0.00619488 -0.00260528 0
0.00528707 -0.00286251 0
0.00340702 -0.0015829 0
0.00251564 -0.00189267 0
0.00783405 -0.00156194 0
0.00619488 -0.00260528 0
0.00378248 0.000451285 0
0.00340702 -0.0015829 0
0.0104766 -0.00126732 0
0.00783405 -0.00156194 0
0.00883894 0.00299081 0
0.00378248 0.000451285 0
0.0129797 -0.00220484 0
0.0104766 -0.00126732 0
0.013247 0.000233788 0
0.00883894 0.00299081 0
0.0129797 -0.00220484 0
0.013247 0.000233788 0
0.0147019 -0.00335036 0
0.014186 -0.00268003 0
0.013247 0.000233788 0
0.0160811 0.000227612 0
0.014186 -0.00268003 0
0.0149173 -0.00255265 0
0.0131422 -0.00488654 0
0.0137517 -0.00227951 0
0.0160811 0.000227612 0
0.0149173 -0.00255265 0
0.0129297 -9.13801e-06 0
0.0126545 -0.00310387 0
0.0131422 -0.00488654 0
0.0137517 -0.00227951 0
0.015674 -0.00555826 0
0.011986 -0.0035442 0
0.0129297 -9.13801e-06 0
0.0126545 -0.00310387 0
0.010253 -0.00709352 0
0.00919019 -0.0046458 0
0.015674 -0.00555826 0
0.011986 -0.0035442 0
0.0066891 -0.00556159 0
0.0075108 -0.00473503 0
0.010253 -0.00709352 0
0.00919019 -0.0046458 0