# vtk DataFile Version 3.0
#This file was generated by the deal.II library on 2016/12/20 at 10:56:48
ASCII
DATASET UNSTRUCTURED_GRID

POINTS 7288 double
-1 0.5 0
-0.978723 0.478723 0
-0.970149 0.5 0
-0.964976 0.485465 0
0.12 -0.5 0
0.15 -0.5 0
0.119014 -0.4708 0
0.15 -0.471429 0
0.11755 -0.441479 0
0.119014 -0.4708 0
0.15 -0.442857 0
0.15 -0.471429 0
0.117242 -0.412206 0
0.11755 -0.441479 0
0.15 -0.414286 0
0.15 -0.442857 0
0.118129 -0.383064 0
0.117242 -0.412206 0
0.15 -0.385714 0
0.15 -0.414286 0
0.12021 -0.354337 0
0.118129 -0.383064 0
0.15 -0.357143 0
0.15 -0.385714 0
0.121793 -0.32584 0
0.12021 -0.354337 0
0.15 -0.328571 0
0.15 -0.357143 0
0.122717 -0.296869 0
0.121793 -0.32584 0
0.15 -0.3 0
0.15 -0.328571 0
0.123759 -0.266752 0
0.122717 -0.296869 0
0.153091 -0.267708 0
0.15 -0.3 0
0.18456 -0.26795 0
0.153091 -0.267708 0
0.183333 -0.3 0
0.15 -0.3 0
0.216606 -0.268111 0
0.18456 -0.26795 0
0.216667 -0.3 0
0.183333 -0.3 0
0.24835 -0.26841 0
0.216606 -0.268111 0
0.25 -0.3 0
0.216667 -0.3 0
0.278782 -0.268564 0
0.24835 -0.26841 0
0.279437 -0.298917 0
0.25 -0.3 0
0.279638 -0.328111 0
0.279437 -0.298917 0
0.25 -0.328571 0
0.25 -0.3 0
0.27971 -0.356801 0
0.279638 -0.328111 0
0.25 -0.357143 0
0.25 -0.328571 0
0.279677 -0.385395 0
0.27971 -0.356801 0
0.25 -0.385714 0
0.25 -0.357143 0
0.279641 -0.413938 0
0.279677 -0.385395 0
0.25 -0.414286 0
0.25 -0.385714 0
0.279666 -0.442534 0
0.279641 -0.413938 0
0.25 -0.442857 0
0.25 -0.414286 0
0.279811 -0.471266 0
0.279666 -0.442534 0
0.25 -0.471429 0
0.25 -0.442857 0
0.28 -0.5 0
0.279811 -0.471266 0
0.25 -0.5 0
0.25 -0.471429 0
0.970149 0.5 0
0.970096 0.46978 0
1 0.5 0
1 0.469697 0
0.940299 0.5 0
0.940231 0.46984 0
0.970149 0.5 0
0.970096 0.46978 0
0.910448 0.5 0
0.910371 0.469856 0
0.940299 0.5 0
0.940231 0.46984 0
0.880597 0.5 0
0.880527 0.469909 0
0.910448 0.5 0
0.910371 0.469856 0
0.850746 0.5 0
0.850684 0.469926 0
0.880597 0.5 0
0.880527 0.469909 0
0.820896 0.5 0
0.820842 0.469978 0
0.850746 0.5 0
0.850684 0.469926 0
0.791045 0.5 0
0.791001 0.470016 0
0.820896 0.5 0
0.820842 0.469978 0
0.761194 0.5 0
0.761159 0.470055 0
0.791045 0.5 0
0.791001 0.470016 0
0.731343 0.5 0
0.731316 0.470091 0
0.761194 0.5 0
0.761159 0.470055 0
0.701493 0.5 0
0.701472 0.470118 0
0.731343 0.5 0
0.731316 0.470091 0
0.671642 0.5 0
0.671627 0.470134 0
0.701493 0.5 0
0.701472 0.470118 0
0.641791 0.5 0
0.64178 0.470142 0
0.671642 0.5 0
0.671627 0.470134 0
0.641791 0.5 0
0.61194 0.5 0
0.64178 0.470142 0
0.611934 0.470065 0
0.58209 0.5 0
0.582089 0.470002 0
0.61194 0.5 0
0.611934 0.470065 0
0.552239 0.5 0
0.552248 0.469853 0
0.58209 0.5 0
0.582089 0.470002 0
0.522388 0.5 0
0.522413 0.469718 0
0.552239 0.5 0
0.552248 0.469853 0
0.492537 0.5 0
0.492577 0.469656 0
0.522388 0.5 0
0.522413 0.469718 0
0.462687 0.5 0
0.462743 0.469571 0
0.492537 0.5 0
0.492577 0.469656 0
0.432836 0.5 0
0.432895 0.46963 0
0.462687 0.5 0
0.462743 0.469571 0
0.402985 0.5 0
0.403046 0.469669 0
0.432836 0.5 0
0.432895 0.46963 0
0.373134 0.5 0
0.373191 0.469745 0
0.402985 0.5 0
0.403046 0.469669 0
0.343284 0.5 0
0.343335 0.469723 0
0.373134 0.5 0
0.373191 0.469745 0
0.313433 0.5 0
0.313478 0.469741 0
0.343284 0.5 0
0.343335 0.469723 0
0.283582 0.5 0
0.283622 0.469783 0
0.313433 0.5 0
0.313478 0.469741 0
0.253731 0.5 0
0.253768 0.469742 0
0.283582 0.5 0
0.283622 0.469783 0
0.223881 0.5 0
0.223918 0.469737 0
0.253731 0.5 0
0.253768 0.469742 0
0.19403 0.5 0
0.194064 0.46981 0
0.223881 0.5 0
0.223918 0.469737 0
0.164179 0.5 0
0.16421 0.469881 0
0.19403 0.5 0
0.194064 0.46981 0
0.134328 0.5 0
0.134355 0.46994 0
0.164179 0.5 0
0.16421 0.469881 0
0.104478 0.5 0
0.1045 0.469997 0
0.134328 0.5 0
0.134355 0.46994 0
0.074627 0.5 0
0.074645 0.470051 0
0.104478 0.5 0
0.1045 0.469997 0
0.044776 0.5 0
0.04479 0.470093 0
0.074627 0.5 0
0.074645 0.470051 0
0.014925 0.5 0
0.014935 0.47012 0
0.044776 0.5 0
0.04479 0.470093 0
-0.014925 0.5 0
-0.014918 0.470135 0
0.014925 0.5 0
0.014935 0.47012 0
-0.044776 0.5 0
-0.044771 0.470143 0
-0.014925 0.5 0
-0.014918 0.470135 0
-0.074627 0.5 0
-0.074623 0.470146 0
-0.044776 0.5 0
-0.044771 0.470143 0
-0.104478 0.5 0
-0.104496 0.469979 0
-0.074627 0.5 0
-0.074623 0.470146 0
-0.134328 0.5 0
-0.134359 0.469935 0
-0.104478 0.5 0
-0.104496 0.469979 0
-0.164179 0.5 0
-0.164225 0.469839 0
-0.134328 0.5 0
-0.134359 0.469935 0
-0.164179 0.5 0
-0.19403 0.5 0
-0.164225 0.469839 0
-0.194083 0.469797 0
-0.223881 0.5 0
-0.22394 0.469753 0
-0.19403 0.5 0
-0.194083 0.469797 0
-0.253731 0.5 0
-0.253798 0.469819 0
-0.223881 0.5 0
-0.22394 0.469753 0
-0.283582 0.5 0
-0.283647 0.470019 0
-0.253731 0.5 0
-0.253798 0.469819 0
-0.313433 0.5 0
-0.313491 0.470151 0
-0.283582 0.5 0
-0.283647 0.470019 0
-0.343284 0.5 0
-0.343348 0.470381 0
-0.313433 0.5 0
-0.313491 0.470151 0
-0.343284 0.5 0
-0.373134 0.5 0
-0.343348 0.470381 0
-0.373195 0.470395 0
-0.373134 0.5 0
-0.402985 0.5 0
-0.373195 0.470395 0
-0.403049 0.470404 0
-0.432836 0.5 0
-0.432937 0.470297 0
-0.402985 0.5 0
-0.403049 0.470404 0
-0.462687 0.5 0
-0.462848 0.469995 0
-0.432836 0.5 0
-0.432937 0.470297 0
-0.492537 0.5 0
-0.492807 0.469765 0
-0.462687 0.5 0
-0.462848 0.469995 0
-0.522388 0.5 0
-0.52276 0.46958 0
-0.492537 0.5 0
-0.492807 0.469765 0
-0.552239 0.5 0
-0.55273 0.469652 0
-0.522388 0.5 0
-0.52276 0.46958 0
-0.58209 0.5 0
-0.582662 0.469731 0
-0.552239 0.5 0
-0.55273 0.469652 0
-0.61194 0.5 0
-0.612594 0.469999 0
-0.58209 0.5 0
-0.582662 0.469731 0
-0.641791 0.5 0
-0.642647 0.470419 0
-0.61194 0.5 0
-0.612594 0.469999 0
-0.671642 0.5 0
-0.672638 0.470543 0
-0.641791 0.5 0
-0.642647 0.470419 0
-0.701493 0.5 0
-0.702968 0.4698 0
-0.671642 0.5 0
-0.672638 0.470543 0
-0.820896 0.5 0
-0.822797 0.47207 0
-0.791045 0.5 0
-0.795702 0.469563 0
0.31 -0.5 0
0.309694 -0.471123 0
0.28 -0.5 0
0.279811 -0.471266 0
0.31 -0.5 0
0.34 -0.5 0
0.309694 -0.471123 0
0.339686 -0.471033 0
0.37 -0.5 0
0.369721 -0.471055 0
0.34 -0.5 0
0.339686 -0.471033 0
0.37 -0.5 0
0.4 -0.5 0
0.369721 -0.471055 0
0.399756 -0.470957 0
0.4 -0.5 0
0.43 -0.5 0
0.399756 -0.470957 0
0.429805 -0.470822 0
0.43 -0.5 0
0.46 -0.5 0
0.429805 -0.470822 0
0.459835 -0.470712 0
0.46 -0.5 0
0.49 -0.5 0
0.459835 -0.470712 0
0.489873 -0.470554 0
0.49 -0.5 0
0.52 -0.5 0
0.489873 -0.470554 0
0.519906 -0.470379 0
0.52 -0.5 0
0.55 -0.5 0
0.519906 -0.470379 0
0.54993 -0.470248 0
0.55 -0.5 0
0.58 -0.5 0
0.54993 -0.470248 0
0.579948 -0.470155 0
0.58 -0.5 0
0.61 -0.5 0
0.579948 -0.470155 0
0.609962 -0.470091 0
0.61 -0.5 0
0.64 -0.5 0
0.609962 -0.470091 0
0.639972 -0.47005 0
0.64 -0.5 0
0.67 -0.5 0
0.639972 -0.47005 0
0.66998 -0.470026 0
0.67 -0.5 0
0.7 -0.5 0
0.66998 -0.470026 0
0.699986 -0.470013 0
0.7 -0.5 0
0.73 -0.5 0
0.699986 -0.470013 0
0.72999 -0.470006 0
0.73 -0.5 0
0.76 -0.5 0
0.72999 -0.470006 0
0.759994 -0.470003 0
0.76 -0.5 0
0.79 -0.5 0
0.759994 -0.470003 0
0.78998 -0.469916 0
0.79 -0.5 0
0.82 -0.5 0
0.78998 -0.469916 0
0.819956 -0.469877 0
0.82 -0.5 0
0.85 -0.5 0
0.819956 -0.469877 0
0.849929 -0.469833 0
0.85 -0.5 0
0.88 -0.5 0
0.849929 -0.469833 0
0.879924 -0.469805 0
0.88 -0.5 0
0.91 -0.5 0
0.879924 -0.469805 0
0.909913 -0.469792 0
0.91 -0.5 0
0.94 -0.5 0
0.909913 -0.469792 0
0.939922 -0.469775 0
0.94 -0.5 0
0.97 -0.5 0
0.939922 -0.469775 0
0.969956 -0.46974 0
0.97 -0.5 0
1 -0.5 0
0.969956 -0.46974 0
1 -0.469697 0
-0.680851 0.180851 0
-0.659574 0.159574 0
-0.659597 0.203254 0
-0.638233 0.18203 0
-0.638298 0.138298 0
-0.616915 0.16063 0
-0.659574 0.159574 0
-0.638233 0.18203 0
-0.617021 0.117021 0
-0.595665 0.139192 0
-0.638298 0.138298 0
-0.616915 0.16063 0
-0.617021 0.117021 0
-0.595745 0.095745 0
-0.595665 0.139192 0
-0.574431 0.117764 0
-0.595745 0.095745 0
-0.574468 0.074468 0
-0.574431 0.117764 0
-0.553204 0.096309 0
-0.553191 0.053191 0
-0.53184 0.075023 0
-0.574468 0.074468 0
-0.553204 0.096309 0
-0.553191 0.053191 0
-0.531915 0.031915 0
-0.53184 0.075023 0
-0.510492 0.053733 0
-0.531915 0.031915 0
-0.510638 0.010638 0
-0.510492 0.053733 0
-0.489127 0.032461 0
-0.510638 0.010638 0
-0.489362 -0.010638 0
-0.489127 0.032461 0
-0.467791 0.011178 0
-0.489362 -0.010638 0
-0.468085 -0.031915 0
-0.467791 0.011178 0
-0.446536 -0.010172 0
-0.446809 -0.053191 0
-0.42524 -0.031466 0
-0.468085 -0.031915 0
-0.446536 -0.010172 0
-0.425532 -0.074468 0
-0.404012 -0.052824 0
-0.446809 -0.053191 0
-0.42524 -0.031466 0
-0.425532 -0.074468 0
-0.404255 -0.095745 0
-0.404012 -0.052824 0
-0.382783 -0.074175 0
-0.404255 -0.095745 0
-0.382979 -0.117021 0
-0.382783 -0.074175 0
-0.361545 -0.095511 0
-0.382979 -0.117021 0
-0.361702 -0.138298 0
-0.361545 -0.095511 0
-0.340288 -0.116831 0
-0.361702 -0.138298 0
-0.340426 -0.159574 0
-0.340288 -0.116831 0
-0.319034 -0.138159 0
-0.340426 -0.159574 0
-0.319149 -0.180851 0
-0.319034 -0.138159 0
-0.297766 -0.159484 0
-0.319149 -0.180851 0
-0.297872 -0.202128 0
-0.297766 -0.159484 0
-0.276489 -0.180797 0
-0.297872 -0.202128 0
-0.276596 -0.223404 0
-0.276489 -0.180797 0
-0.255087 -0.202105 0
-0.255319 -0.244681 0
-0.233674 -0.223466 0
-0.276596 -0.223404 0
-0.255087 -0.202105 0
-0.234043 -0.265957 0
-0.212119 -0.244916 0
-0.255319 -0.244681 0
-0.233674 -0.223466 0
-0.234043 -0.265957 0
-0.212766 -0.287234 0
-0.212119 -0.244916 0
-0.190657 -0.266392 0
-0.191489 -0.308511 0
-0.169261 -0.287934 0
-0.212766 -0.287234 0
-0.190657 -0.266392 0
-0.170213 -0.329787 0
-0.147854 -0.309624 0
-0.191489 -0.308511 0
-0.169261 -0.287934 0
-0.170213 -0.329787 0
-0.148936 -0.351064 0
-0.147854 -0.309624 0
-0.126431 -0.331364 0
-0.12766 -0.37234 0
-0.105256 -0.353368 0
-0.148936 -0.351064 0
-0.126431 -0.331364 0
-0.12766 -0.37234 0
-0.106383 -0.393617 0
-0.105256 -0.353368 0
-0.083924 -0.375263 0
-0.106383 -0.393617 0
-0.085106 -0.414894 0
-0.083924 -0.375263 0
-0.062097 -0.396824 0
-0.085106 -0.414894 0
-0.06383 -0.43617 0
-0.062097 -0.396824 0
-0.040132 -0.418076 0
-0.06383 -0.43617 0
-0.042553 -0.457447 0
-0.040132 -0.418076 0
-0.019646 -0.439891 0
-0.042553 -0.457447 0
-0.021277 -0.478723 0
-0.019646 -0.439891 0
-0.002475 -0.461393 0
-0.021277 -0.478723 0
0 -0.5 0
-0.002475 -0.461393 0
0.009599 -0.478226 0
[...]
POINT_DATA 7288
VECTORS momentum double
0.00103112 -0.000855131 0
0.00432977 -0.00457476 0
0.0126723 -0.0011725 0
0.0144389 0.00124039 0
-8.14821e-05 -0.000400176 0
6.93373e-05 -0.000402188 0
-1.95795e-05 -0.000912568 0
6.25497e-05 -0.000875251 0
-0.000200729 -0.000554014 0
-1.95795e-05 -0.000912568 0
7.34436e-05 -0.000592402 0
6.25497e-05 -0.000875251 0
-4.19379e-05 -0.00097691 0
-0.000200729 -0.000554014 0
-9.2245e-07 -0.00108186 0
7.34436e-05 -0.000592402 0
3.11908e-05 -0.000650104 0
-4.19379e-05 -0.00097691 0
-1.42497e-05 -0.000741708 0
-9.2245e-07 -0.00108186 0
3.65405e-05 -0.00094292 0
3.11908e-05 -0.000650104 0
-3.79734e-05 -0.000962024 0
-1.42497e-05 -0.000741708 0
0.000134775 -0.000663806 0
3.65405e-05 -0.00094292 0
-2.04398e-06 -0.000619184 0
-3.79734e-05 -0.000962024 0
2.32759e-05 -0.00114712 0
0.000134775 -0.000663806 0
-3.33307e-05 -0.00058018 0
-2.04398e-06 -0.000619184 0
-0.000450161 -0.000677006 0
2.32759e-05 -0.00114712 0
-0.000681902 -0.000891998 0
-3.33307e-05 -0.00058018 0
-0.000325921 -0.00122877 0
-0.000681902 -0.000891998 0
-2.32341e-05 -0.000432216 0
-3.33307e-05 -0.00058018 0
-0.0001704 -0.0012862 0
-0.000325921 -0.00122877 0
-0.000525358 -0.000495122 0
-2.32341e-05 -0.000432216 0
3.67418e-05 -0.000782948 0
-0.0001704 -0.0012862 0
-0.000241322 -0.000450493 0
-0.000525358 -0.000495122 0
-1.49574e-05 -0.000512952 0
3.67418e-05 -0.000782948 0
-0.00024495 -0.000845685 0
-0.000241322 -0.000450493 0
-5.29978e-05 -0.000434517 0
-0.00024495 -0.000845685 0
2.42288e-05 -0.000303751 0
-0.000241322 -0.000450493 0
-3.89066e-05 -0.000760696 0
-5.29978e-05 -0.000434517 0
-1.95036e-05 -0.000779105 0
2.42288e-05 -0.000303751 0
1.07156e-05 -0.000421428 0
-3.89066e-05 -0.000760696 0
3.54655e-06 -0.000396987 0
-1.95036e-05 -0.000779105 0
-2.26277e-05 -0.000793749 0
1.07156e-05 -0.000421428 0
-4.39964e-06 -0.000803515 0
3.54655e-06 -0.000396987 0
5.5419e-06 -0.000403428 0
-2.26277e-05 -0.000793749 0
1.36266e-06 -0.000393689 0
-4.39964e-06 -0.000803515 0
-1.94455e-05 -0.000842918 0
5.5419e-06 -0.000403428 0
-2.61807e-06 -0.000846458 0
1.36266e-06 -0.000393689 0
1.00389e-05 -0.000378909 0
-1.94455e-05 -0.000842918 0
1.92991e-06 -0.00037345 0
-2.61807e-06 -0.000846458 0
-3.08914e-05 -0.000659104 0
-2.02985e-05 -0.00170677 0
-3.27621e-05 -0.000659303 0
-1.91759e-05 -0.00170781 0
-2.50482e-05 -0.000659586 0
-1.77445e-05 -0.00170646 0
-3.08914e-05 -0.000659104 0
-2.02985e-05 -0.00170677 0
-1.91766e-05 -0.000659144 0
-1.12482e-05 -0.00170579 0
-2.50482e-05 -0.000659586 0
-1.77445e-05 -0.00170646 0
-1.22617e-05 -0.000658207 0
-4.46967e-06 -0.0017049 0
-1.91766e-05 -0.000659144 0
-1.12482e-05 -0.00170579 0
-4.67384e-06 -0.000657501 0
4.35186e-06 -0.00170435 0
-1.22617e-05 -0.000658207 0
-4.46967e-06 -0.0017049 0
4.04e-06 -0.000656048 0
1.3759e-05 -0.00170377 0
-4.67384e-06 -0.000657501 0
4.35186e-06 -0.00170435 0
1.46094e-05 -0.000655283 0
2.41267e-05 -0.00170331 0
4.04e-06 -0.000656048 0
1.3759e-05 -0.00170377 0
2.53766e-05 -0.000653692 0
3.54337e-05 -0.00170363 0
1.46094e-05 -0.000655283 0
2.41267e-05 -0.00170331 0
3.81836e-05 -0.000652424 0
4.58161e-05 -0.00170421 0
2.53766e-05 -0.000653692 0
3.54337e-05 -0.00170363 0
5.10014e-05 -0.000651625 0
5.72662e-05 -0.00170565 0
3.81836e-05 -0.000652424 0
4.58161e-05 -0.00170421 0
6.57651e-05 -0.000650392 0
6.79474e-05 -0.00170711 0
5.10014e-05 -0.000651625 0
5.72662e-05 -0.00170565 0
8.13714e-05 -0.000649647 0
7.44487e-05 -0.0017102 0
6.57651e-05 -0.000650392 0
6.79474e-05 -0.00170711 0
8.13714e-05 -0.000649647 0
9.32284e-05 -0.000650271 0
7.44487e-05 -0.0017102 0
8.08864e-05 -0.00171404 0
0.00010396 -0.000650609 0
8.3795e-05 -0.00172006 0
9.32284e-05 -0.000650271 0
8.08864e-05 -0.00171404 0
0.000109463 -0.000653314 0
8.48049e-05 -0.00172525 0
0.00010396 -0.000650609 0
8.3795e-05 -0.00172006 0
0.000106663 -0.000656016 0
8.90141e-05 -0.00172844 0
0.000109463 -0.000653314 0
8.48049e-05 -0.00172525 0
0.000104602 -0.00065725 0
9.08543e-05 -0.00172903 0
0.000106663 -0.000656016 0
8.90141e-05 -0.00172844 0
9.36357e-05 -0.000659345 0
8.83471e-05 -0.00172845 0
0.000104602 -0.00065725 0
9.08543e-05 -0.00172903 0
7.55537e-05 -0.000660004 0
8.16282e-05 -0.0017271 0
9.36357e-05 -0.000659345 0
8.83471e-05 -0.00172845 0
5.80712e-05 -0.000659105 0
6.97605e-05 -0.00172471 0
7.55537e-05 -0.000660004 0
8.16282e-05 -0.0017271 0
4.44672e-05 -0.000657316 0
5.29268e-05 -0.00172417 0
5.80712e-05 -0.000659105 0
6.97605e-05 -0.00172471 0
3.23298e-05 -0.00065739 0
3.55667e-05 -0.00172246 0
4.44672e-05 -0.000657316 0
5.29268e-05 -0.00172417 0
1.83288e-05 -0.000657178 0
2.25395e-05 -0.0017248 0
3.23298e-05 -0.00065739 0
3.55667e-05 -0.00172246 0
7.20141e-06 -0.0006573 0
6.39479e-06 -0.00172475 0
1.83288e-05 -0.000657178 0
2.25395e-05 -0.0017248 0
1.36269e-06 -0.000658597 0
-5.88055e-06 -0.00172169 0
7.20141e-06 -0.0006573 0
6.39479e-06 -0.00172475 0
-1.40667e-05 -0.000662102 0
-1.98226e-05 -0.00171674 0
1.36269e-06 -0.000658597 0
-5.88055e-06 -0.00172169 0
-2.94044e-05 -0.000666268 0
-2.45505e-05 -0.00171025 0
-1.40667e-05 -0.000662102 0
-1.98226e-05 -0.00171674 0
-4.50213e-05 -0.000665545 0
-3.08836e-05 -0.00170856 0
-2.94044e-05 -0.000666268 0
-2.45505e-05 -0.00171025 0
-4.85539e-05 -0.000663172 0
-3.14327e-05 -0.00170842 0
-4.50213e-05 -0.000665545 0
-3.08836e-05 -0.00170856 0
-5.75337e-05 -0.00065954 0
-3.85741e-05 -0.00171148 0
-4.85539e-05 -0.000663172 0
-3.14327e-05 -0.00170842 0
-5.15422e-05 -0.000654945 0
-3.32505e-05 -0.00171501 0
-5.75337e-05 -0.00065954 0
-3.85741e-05 -0.00171148 0
-5.62016e-05 -0.00065043 0
-4.39017e-05 -0.00172065 0
-5.15422e-05 -0.000654945 0
-3.32505e-05 -0.00171501 0
-3.92105e-05 -0.000648898 0
-3.51356e-05 -0.00172127 0
-5.62016e-05 -0.00065043 0
-4.39017e-05 -0.00172065 0
-4.85048e-05 -0.000648607 0
-4.67503e-05 -0.00172549 0
-3.92105e-05 -0.000648898 0
-3.51356e-05 -0.00172127 0
-2.44304e-05 -0.000648102 0
-2.93067e-05 -0.00172235 0
-4.85048e-05 -0.000648607 0
-4.67503e-05 -0.00172549 0
-4.92438e-05 -0.000648982 0
-6.57177e-05 -0.00172096 0
-2.44304e-05 -0.000648102 0
-2.93067e-05 -0.00172235 0
-4.76162e-05 -0.000651069 0
-6.81289e-05 -0.00170505 0
-4.92438e-05 -0.000648982 0
-6.57177e-05 -0.00172096 0
-0.000151287 -0.000654361 0
-0.000166121 -0.0016869 0
-4.76162e-05 -0.000651069 0
-6.81289e-05 -0.00170505 0
-0.000213666 -0.000657536 0
-0.000226333 -0.00164046 0
-0.000151287 -0.000654361 0
-0.000166121 -0.0016869 0
-0.000213666 -0.000657536 0
-0.000473746 -0.00066114 0
-0.000226333 -0.00164046 0
-0.00046115 -0.00158754 0
-0.000694044 -0.000656091 0
-0.0006512 -0.00148393 0
-0.000473746 -0.00066114 0
-0.00046115 -0.00158754 0
-0.00126995 -0.000648216 0
-0.00117564 -0.0013554 0
-0.000694044 -0.000656091 0
-0.0006512 -0.00148393 0
-0.00182812 -0.000630714 0
-0.00170422 -0.00108981 0
-0.00126995 -0.000648216 0
-0.00117564 -0.0013554 0
-0.00306765 -0.000611761 0
-0.00288298 -0.000771109 0
-0.00182812 -0.000630714 0
-0.00170422 -0.00108981 0
-0.00438749 -0.000578753 0
-0.00417801 -0.00018055 0
-0.00306765 -0.000611761 0
-0.00288298 -0.000771109 0
-0.00438749 -0.000578753 0
-0.00699561 -0.000542538 0
-0.00417801 -0.00018055 0
-0.00670015 0.000527023 0
-0.00699561 -0.000542538 0
-0.00992326 -0.000489934 0
-0.00670015 0.000527023 0
-0.0096261 0.00179269 0
-0.0152673 -0.000445097 0
-0.0148082 0.00325131 0
-0.00992326 -0.000489934 0
-0.0096261 0.00179269 0
-0.0214467 -0.00035972 0
-0.0209983 0.00578125 0
-0.0152673 -0.000445097 0
-0.0148082 0.00325131 0
-0.0320318 -0.000293818 0
-0.0312026 0.00855461 0
-0.0214467 -0.00035972 0
-0.0209983 0.00578125 0
-0.0442976 -0.000122619 0
-0.0435997 0.0131205 0
-0.0320318 -0.000293818 0
-0.0312026 0.00855461 0
-0.0642926 -5.81993e-05 0
-0.0628726 0.0178302 0
-0.0442976 -0.000122619 0
-0.0435997 0.0131205 0
-0.0873696 0.000252678 0
-0.0864678 0.0261698 0
-0.0642926 -5.81993e-05 0
-0.0628726 0.0178302 0
-0.124442 0.000322847 0
-0.121318 0.0337127 0
-0.0873696 0.000252678 0
-0.0864678 0.0261698 0
-0.165707 0.00140537 0
-0.164771 0.0487596 0
-0.124442 0.000322847 0
-0.121318 0.0337127 0
-0.230579 0.00174811 0
-0.223178 0.0506761 0
-0.165707 0.00140537 0
-0.164771 0.0487596 0
-0.262641 3.97438e-05 0
-0.28738 0.0251694 0
-0.230579 0.00174811 0
-0.223178 0.0506761 0
-0.0463762 -0.00379549 0
-0.0306624 -0.0353576 0
-0.103376 -0.0022589 0
-0.0826078 -0.0767773 0
1.30089e-06 -0.000389195 0
-2.74132e-05 -0.000840694 0
1.00389e-05 -0.000378909 0
-1.94455e-05 -0.000842918 0
1.30089e-06 -0.000389195 0
-1.48999e-05 -0.000396951 0
-2.74132e-05 -0.000840694 0
-2.92838e-05 -0.000839376 0
-2.75761e-05 -0.000400427 0
-3.74856e-05 -0.00083891 0
-1.48999e-05 -0.000396951 0
-2.92838e-05 -0.000839376 0
-2.75761e-05 -0.000400427 0
-3.37403e-05 -0.000404257 0
-3.74856e-05 -0.00083891 0
-4.64193e-05 -0.00083761 0
-3.37403e-05 -0.000404257 0
-4.12048e-05 -0.000406792 0
-4.64193e-05 -0.00083761 0
-5.3361e-05 -0.000838571 0
-4.12048e-05 -0.000406792 0
-4.93286e-05 -0.000409024 0
-5.3361e-05 -0.000838571 0
-5.89267e-05 -0.000840467 0
-4.93286e-05 -0.000409024 0
-5.5349e-05 -0.000409291 0
-5.89267e-05 -0.000840467 0
-6.70163e-05 -0.00084395 0
-5.5349e-05 -0.000409291 0
-6.11662e-05 -0.000411759 0
-6.70163e-05 -0.00084395 0
-7.55336e-05 -0.000846688 0
-6.11662e-05 -0.000411759 0
-6.81666e-05 -0.000413865 0
-7.55336e-05 -0.000846688 0
-7.96553e-05 -0.000849103 0
-6.81666e-05 -0.000413865 0
-7.38747e-05 -0.000415876 0
-7.96553e-05 -0.000849103 0
-8.20759e-05 -0.000851452 0
-7.38747e-05 -0.000415876 0
-7.65549e-05 -0.00041694 0
-8.20759e-05 -0.000851452 0
-8.20221e-05 -0.000853206 0
-7.65549e-05 -0.00041694 0
-7.71412e-05 -0.000418089 0
-8.20221e-05 -0.000853206 0
-8.04574e-05 -0.000854637 0
-7.71412e-05 -0.000418089 0
-7.49936e-05 -0.000418397 0
-8.04574e-05 -0.000854637 0
-7.60989e-05 -0.000855708 0
-7.49936e-05 -0.000418397 0
-7.15446e-05 -0.000418737 0
-7.60989e-05 -0.000855708 0
-7.15797e-05 -0.000856802 0
-7.15446e-05 -0.000418737 0
-6.56004e-05 -0.000418843 0
-7.15797e-05 -0.000856802 0
-6.58278e-05 -0.000858228 0
-6.56004e-05 -0.000418843 0
-5.78003e-05 -0.000419059 0
-6.58278e-05 -0.000858228 0
-6.15065e-05 -0.000860364 0
-5.78003e-05 -0.000419059 0
-5.10323e-05 -0.000419769 0
-6.15065e-05 -0.000860364 0
-5.66167e-05 -0.000861979 0
-5.10323e-05 -0.000419769 0
-4.62493e-05 -0.000420666 0
-5.66167e-05 -0.000861979 0
-5.12858e-05 -0.000864259 0
-4.62493e-05 -0.000420666 0
-4.16963e-05 -0.000421611 0
-5.12858e-05 -0.000864259 0
-4.5942e-05 -0.000866632 0
-4.16963e-05 -0.000421611 0
-3.96541e-05 -0.000422375 0
-4.5942e-05 -0.000866632 0
-4.23579e-05 -0.00086895 0
-3.96541e-05 -0.000422375 0
-3.67181e-05 -0.000422681 0
-4.23579e-05 -0.00086895 0
-3.8915e-05 -0.000871374 0
-3.67181e-05 -0.000422681 0
-3.45438e-05 -0.00042317 0
-3.8915e-05 -0.000871374 0
-3.66577e-05 -0.00087323 0
-3.45438e-05 -0.00042317 0
-3.11112e-05 -0.000423234 0
-3.66577e-05 -0.00087323 0
-3.32992e-05 -0.000874717 0
-3.11112e-05 -0.000423234 0
-2.88054e-05 -0.000423227 0
-3.32992e-05 -0.000874717 0
-3.16623e-05 -0.000875494 0
0.221207 -0.213487 0
0.140542 -0.136251 0
0.249343 -0.0947598 0
0.165666 -0.0802941 0
0.0983545 -0.0973188 0
0.115113 -0.0676289 0
0.140542 -0.136251 0
0.165666 -0.0802941 0
0.0738145 -0.0734499 0
0.0843592 -0.0553566 0
0.0983545 -0.0973188 0
0.115113 -0.0676289 0
0.0738145 -0.0734499 0
0.0571964 -0.0571224 0
0.0843592 -0.0553566 0
0.0638346 -0.0456784 0
0.0571964 -0.0571224 0
0.0450143 -0.0451733 0
0.0638346 -0.0456784 0
0.0492388 -0.0374553 0
0.0357135 -0.0359657 0
0.0383626 -0.0306873 0
0.0450143 -0.0451733 0
0.0492388 -0.0374553 0
0.0357135 -0.0359657 0
0.0281535 -0.0285068 0
0.0383626 -0.0306873 0
0.0297822 -0.0247963 0
0.0281535 -0.0285068 0
0.0220928 -0.0224852 0
0.0297822 -0.0247963 0
0.0230192 -0.019908 0
0.0220928 -0.0224852 0
0.0170496 -0.0174806 0
0.0230192 -0.019908 0
0.0174875 -0.0156785 0
0.0170496 -0.0174806 0
0.0130323 -0.0134802 0
0.0174875 -0.0156785 0
0.013134 -0.0122477 0
0.00976436 -0.0102269 0
0.00963232 -0.00938413 0
0.0130323 -0.0134802 0
0.013134 -0.0122477 0
0.00725142 -0.0077253 0
0.00696729 -0.00716228 0
0.00976436 -0.0102269 0
0.00963232 -0.00938413 0
0.00725142 -0.0077253 0
0.00528914 -0.00577009 0
0.00696729 -0.00716228 0
0.00490465 -0.00540307 0
0.00528914 -0.00577009 0
0.0038541 -0.00433886 0
0.00490465 -0.00540307 0
0.00340914 -0.00410395 0
0.0038541 -0.00433886 0
0.00278091 -0.00326564 0
0.00340914 -0.00410395 0
0.00229708 -0.00312597 0
0.00278091 -0.00326564 0
0.00204017 -0.00252227 0
0.00229708 -0.00312597 0
0.00153189 -0.00244185 0
0.00204017 -0.00252227 0
0.00150405 -0.00198329 0
0.00153189 -0.00244185 0
0.000982856 -0.00194693 0
0.00150405 -0.00198329 0
0.00116325 -0.00163707 0
0.000982856 -0.00194693 0
0.00063357 -0.00162102 0
0.00116325 -0.00163707 0
0.000913015 -0.00138541 0
0.00063357 -0.00162102 0
0.000381809 -0.00139449 0
0.000774829 -0.00123394 0
0.000243398 -0.00126466 0
0.000913015 -0.00138541 0
0.000381809 -0.00139449 0
0.000663792 -0.0011137 0
0.000109213 -0.00116023 0
0.000774829 -0.00123394 0
0.000243398 -0.00126466 0
0.000663792 -0.0011137 0
0.000618254 -0.00106933 0
0.000109213 -0.00116023 0
6.07041e-05 -0.00110071 0
0.000550199 -0.00101457 0
-5.11828e-06 -0.00103141 0
0.000618254 -0.00106933 0
6.07041e-05 -0.00110071 0
0.000535223 -0.00102765 0
3.71249e-05 -0.00101315 0
0.000550199 -0.00101457 0
-5.11828e-06 -0.00103141 0
0.000535223 -0.00102765 0
0.000468785 -0.000961725 0
3.71249e-05 -0.00101315 0
4.31513e-07 -0.00100033 0
0.000519826 -0.000997474 0
4.03824e-05 -0.00104811 0
0.000468785 -0.000961725 0
4.31513e-07 -0.00100033 0
0.000519826 -0.000997474 0
0.00049953 -0.000977024 0
4.03824e-05 -0.00104811 0
-2.05373e-05 -0.00102032 0
0.00049953 -0.000977024 0
0.000572172 -0.00106742 0
-2.05373e-05 -0.00102032 0
0.000106957 -0.00109664 0
0.000572172 -0.00106742 0
0.000475232 -0.000972504 0
0.000106957 -0.00109664 0
6.07621e-05 -0.000961823 0
0.000475232 -0.000972504 0
0.000365275 -0.00083359 0
6.07621e-05 -0.000961823 0
0.000320277 -0.00116452 0
0.000365275 -0.00083359 0
0.000273938 -0.000587902 0
0.000320277 -0.00116452 0
0.000130273 -0.00058894 0
0.000273938 -0.000587902 0
0.000143426 -0.000461233 0
0.000130273 -0.00058894 0
5.26319e-05 -0.000923692 0
0.000143426 -0.000461233 0
0.000340363 -0.000283995 0
5.26319e-05 -0.000923692 0
0.000221926 -0.000756433 0
0.000340363 -0.000283995 0
0.000261614 -0.000370082 0
0.000221926 -0.000756433 0
-0.000160618 -0.000851498 0
0.000261614 -0.000370082 0
0.000175531 -0.000446894 0
-0.000160618 -0.000851498 0
0.000105054 -0.000797668 0
0.000175531 -0.000446894 0
-8.14821e-05 -0.000400176 0
0.000105054 -0.000797668 0
-1.95795e-05 -0.000912568 0
-3.32992e-05 -0.000874717 0
-3.16623e-05 -0.000875494 0
-3.54387e-05 -0.000498389 0
-3.44034e-05 -0.000501692 0
-3.54387e-05 -0.000498389 0
-3.44034e-05 -0.000501692 0
-3.99773e-05 -0.00084531 0
-3.95615e-05 -0.00084786 0
-3.99773e-05 -0.00084531 0
-3.95615e-05 -0.00084786 0
-4.59796e-05 -0.000567483 0
-4.48957e-05 -0.00057119 0
-4.59796e-05 -0.000567483 0
-4.48957e-05 -0.00057119 0
-5.19933e-05 -0.000832063 0
-5.29545e-05 -0.000836597 0
-5.19933e-05 -0.000832063 0
-5.29545e-05 -0.000836597 0
-6.01993e-05 -0.000632195 0
-6.02401e-05 -0.000636949 0
-6.01993e-05 -0.000632195 0
-6.02401e-05 -0.000636949 0
-6.76477e-05 -0.000835573 0
-6.89125e-05 -0.000841389 0
-7.77263e-05 -0.000698986 0
-6.76477e-05 -0.000835573 0
-7.81247e-05 -0.000705481 0
-6.89125e-05 -0.000841389 0
-7.77263e-05 -0.000698986 0
-7.81247e-05 -0.000705481 0
-8.82836e-05 -0.000855716 0
-8.87368e-05 -0.000863232 0
-8.82836e-05 -0.000855716 0
-8.87368e-05 -0.000863232 0
-0.000101523 -0.000767913 0
-0.000101288 -0.000777121 0
-0.000101523 -0.000767913 0
-0.000101288 -0.000777121 0
-0.0001176 -0.000883237 0
-0.000117527 -0.000894072 0
-0.0001176 -0.000883237 0
-0.000117527 -0.000894072 0
-0.000137413 -0.00082845 0
-0.000137767 -0.000842122 0
-0.000137413 -0.00082845 0
-0.000137767 -0.000842122 0
-0.00016279 -0.000901772 0
-0.000166632 -0.000918477 0
-0.00016279 -0.000901772 0
-0.000166632 -0.000918477 0
-0.000193063 -0.000868896 0
-0.000202417 -0.000888841 0
-0.000193063 -0.000868896 0
-0.000202417 -0.000888841 0
-0.000229234 -0.000902036 0
-0.000249111 -0.000925229 0
-0.000229234 -0.000902036 0
-0.000249111 -0.000925229 0
-0.000267666 -0.000889761 0
-0.000302224 -0.000914125 0
-0.000267666 -0.000889761 0
-0.000302224 -0.000914125 0
-0.000304986 -0.00088774 0
-0.000358002 -0.000910675 0
-0.000304986 -0.00088774 0
-0.000358002 -0.000910675 0
-0.000332638 -0.0009021 0
-0.000404152 -0.00091824 0
-0.000332638 -0.0009021 0
-0.000404152 -0.00091824 0
-0.000343045 -0.000871283 0
-0.000426617 -0.000875858 0
-0.000343045 -0.000871283 0
-0.000426617 -0.000875858 0
-0.000330543 -0.000930198 0
-0.000412802 -0.000919771 0
-0.000330543 -0.000930198 0
-0.000412802 -0.000919771 0
-0.000296334 -0.000881646 0
-0.000364174 -0.000860364 0
-0.000296334 -0.000881646 0
-0.000364174 -0.000860364 0
-0.000249058 -0.00100675 0
-0.000296986 -0.000978923 0
-0.000249058 -0.00100675 0
-0.000296986 -0.000978923 0
-0.000195947 -0.000927281 0
-0.000224904 -0.00089969 0
-0.000195947 -0.000927281 0
-0.000224904 -0.00089969 0
-0.000149179 -0.00111682 0
-0.000163151 -0.00109126 0
-0.000149179 -0.00111682 0
-0.000163151 -0.00109126 0
-0.000104588 -0.000963429 0
-0.000109072 -0.000944615 0
-0.000104588 -0.000963429 0
-0.000109072 -0.000944615 0
-7.87826e-05 -0.00122267 0
-8.01305e-05 -0.00120667 0
-7.87826e-05 -0.00122267 0
-8.01305e-05 -0.00120667 0
-4.99861e-05 -0.000959596 0
-4.81182e-05 -0.000947554 0
-4.99861e-05 -0.000959596 0
-4.81182e-05 -0.000947554 0
-3.61501e-05 -0.00134178 0
-3.56882e-05 -0.00133259 0
-3.61501e-05 -0.00134178 0
-3.56882e-05 -0.00133259 0
-1.66999e-05 -0.00092296 0
-1.4358e-05 -0.000917995 0
-1.66999e-05 -0.00092296 0
-1.4358e-05 -0.000917995 0
-1.85217e-05 -0.00149762 0
-1.758e-05 -0.00149682 0
-1.85217e-05 -0.00149762 0
-1.758e-05 -0.00149682 0
-1.59636e-05 -0.000837157 0
-1.57215e-05 -0.000836427 0
-1.59636e-05 -0.000837157 0
-1.57215e-05 -0.000836427 0
-2.02985e-05 -0.00170677 0
-1.91759e-05 -0.00170781 0
0.249343 -0.0947598 0
0.165666 -0.0802941 0
0.212318 0.0180213 0
0.157442 -0.01514 0
0.115113 -0.0676289 0
0.114315 -0.0268589 0
0.165666 -0.0802941 0
0.157442 -0.01514 0
0.0843592 -0.0553566 0
0.0861532 -0.0305674 0
0.115113 -0.0676289 0
0.114315 -0.0268589 0
0.0843592 -0.0553566 0
0.0638346 -0.0456784 0
0.0861532 -0.0305674 0
0.0656568 -0.0291136 0
0.0638346 -0.0456784 0
0.0492388 -0.0374553 0
0.0656568 -0.0291136 0
0.0509211 -0.0263475 0
0.0383626 -0.0306873 0
0.039596 -0.0228164 0
0.0492388 -0.0374553 0
0.0509211 -0.0263475 0
0.0383626 -0.0306873 0
0.0297822 -0.0247963 0
0.039596 -0.0228164 0
0.0306837 -0.0191947 0
0.0297822 -0.0247963 0
0.0230192 -0.019908 0
0.0306837 -0.0191947 0
0.0236167 -0.0157741 0
0.0230192 -0.019908 0
0.0174875 -0.0156785 0
0.0236167 -0.0157741 0
0.0179045 -0.012634 0
0.0174875 -0.0156785 0
0.013134 -0.0122477 0
0.0179045 -0.012634 0
0.0134037 -0.00994033 0
0.00963232 -0.00938413 0
0.0098152 -0.00764374 0
0.013134 -0.0122477 0
0.0134037 -0.00994033 0
0.00696729 -0.00716228 0
0.00707741 -0.0058224 0
0.00963232 -0.00938413 0
0.0098152 -0.00764374 0
0.00696729 -0.00716228 0
0.00490465 -0.00540307 0
0.00707741 -0.0058224 0
0.00496841 -0.00435281 0
0.00490465 -0.00540307 0
0.00340914 -0.00410395 0
0.00496841 -0.00435281 0
0.00343527 -0.00325484 0
0.00340914 -0.00410395 0
0.00229708 -0.00312597 0
0.00343527 -0.00325484 0
0.00230601 -0.00241498 0
0.00229708 -0.00312597 0
0.00153189 -0.00244185 0
0.00230601 -0.00241498 0
0.00153129 -0.00182254 0
0.00153189 -0.00244185 0
0.000982856 -0.00194693 0
0.00153129 -0.00182254 0
0.000978012 -0.00139641 0
0.000982856 -0.00194693 0
0.00063357 -0.00162102 0
0.000978012 -0.00139641 0
0.000617513 -0.00111519 0
0.00063357 -0.00162102 0
0.000381809 -0.00139449 0
0.000617513 -0.00111519 0
0.000361442 -0.000919512 0
0.000243398 -0.00126466 0
0.000226838 -0.000779818 0
0.000381809 -0.00139449 0
0.000361442 -0.000919512 0
0.000109213 -0.00116023 0
0.000132261 -0.00069406 0
0.000243398 -0.00126466 0
0.000226838 -0.000779818 0