# vtk DataFile Version 3.0
#This file was generated by the deal.II library on 2016/12/20 at 10:57:00
ASCII
DATASET UNSTRUCTURED_GRID

POINTS 7408 double
-1 0.5 0
-0.978723 0.478723 0
-0.970149 0.5 0
-0.964976 0.485465 0
0.12 -0.5 0
0.15 -0.5 0
0.119014 -0.4708 0
0.15 -0.471429 0
0.11755 -0.441479 0
0.119014 -0.4708 0
0.15 -0.442857 0
0.15 -0.471429 0
0.117242 -0.412206 0
0.11755 -0.441479 0
0.15 -0.414286 0
0.15 -0.442857 0
0.118129 -0.383064 0
0.117242 -0.412206 0
0.15 -0.385714 0
0.15 -0.414286 0
0.12021 -0.354337 0
0.118129 -0.383064 0
0.15 -0.357143 0
0.15 -0.385714 0
0.121793 -0.32584 0
0.12021 -0.354337 0
0.15 -0.328571 0
0.15 -0.357143 0
0.122717 -0.296869 0
0.121793 -0.32584 0
0.15 -0.3 0
0.15 -0.328571 0
0.123759 -0.266752 0
0.122717 -0.296869 0
0.153091 -0.267708 0
0.15 -0.3 0
0.18456 -0.26795 0
0.153091 -0.267708 0
0.183333 -0.3 0
0.15 -0.3 0
0.216606 -0.268111 0
0.18456 -0.26795 0
0.216667 -0.3 0
0.183333 -0.3 0
0.24835 -0.26841 0
0.216606 -0.268111 0
0.25 -0.3 0
0.216667 -0.3 0
0.278782 -0.268564 0
0.24835 -0.26841 0
0.279437 -0.298917 0
0.25 -0.3 0
0.279638 -0.328111 0
0.279437 -0.298917 0
0.25 -0.328571 0
0.25 -0.3 0
0.27971 -0.356801 0
0.279638 -0.328111 0
0.25 -0.357143 0
0.25 -0.328571 0
0.279677 -0.385395 0
0.27971 -0.356801 0
0.25 -0.385714 0
0.25 -0.357143 0
0.279641 -0.413938 0
0.279677 -0.385395 0
0.25 -0.414286 0
0.25 -0.385714 0
0.279666 -0.442534 0
0.279641 -0.413938 0
0.25 -0.442857 0
0.25 -0.414286 0
0.279811 -0.471266 0
0.279666 -0.442534 0
0.25 -0.471429 0
0.25 -0.442857 0
0.28 -0.5 0
0.279811 -0.471266 0
0.25 -0.5 0
0.25 -0.471429 0
0.970149 0.5 0
0.970096 0.46978 0
1 0.5 0
1 0.469697 0
0.940299 0.5 0
0.940231 0.46984 0
0.970149 0.5 0
0.970096 0.46978 0
0.910448 0.5 0
0.910371 0.469856 0
0.940299 0.5 0
0.940231 0.46984 0
0.880597 0.5 0
0.880527 0.469909 0
0.910448 0.5 0
0.910371 0.469856 0
0.850746 0.5 0
0.850684 0.469926 0
0.880597 0.5 0
0.880527 0.469909 0
0.820896 0.5 0
0.820842 0.469978 0
0.850746 0.5 0
0.850684 0.469926 0
0.791045 0.5 0
0.791001 0.470016 0
0.820896 0.5 0
0.820842 0.469978 0
0.761194 0.5 0
0.761159 0.470055 0
0.791045 0.5 0
0.791001 0.470016 0
0.731343 0.5 0
0.731316 0.470091 0
0.761194 0.5 0
0.761159 0.470055 0
0.701493 0.5 0
0.701472 0.470118 0
0.731343 0.5 0
0.731316 0.470091 0
0.671642 0.5 0
0.671627 0.470134 0
0.701493 0.5 0
0.701472 0.470118 0
0.641791 0.5 0
0.64178 0.470142 0
0.671642 0.5 0
0.671627 0.470134 0
0.641791 0.5 0
0.61194 0.5 0
0.64178 0.470142 0
0.611934 0.470065 0
0.58209 0.5 0
0.582089 0.470002 0
0.61194 0.5 0
0.611934 0.470065 0
0.552239 0.5 0
0.552248 0.469853 0
0.58209 0.5 0
0.582089 0.470002 0
0.522388 0.5 0
0.522413 0.469718 0
0.552239 0.5 0
0.552248 0.469853 0
0.492537 0.5 0
0.492577 0.469656 0
0.522388 0.5 0
0.522413 0.469718 0
0.462687 0.5 0
0.462743 0.469571 0
0.492537 0.5 0
0.492577 0.469656 0
0.432836 0.5 0
0.432895 0.46963 0
0.462687 0.5 0
0.462743 0.469571 0
0.402985 0.5 0
0.403046 0.469669 0
0.432836 0.5 0
0.432895 0.46963 0
0.373134 0.5 0
0.373191 0.469745 0
0.402985 0.5 0
0.403046 0.469669 0
0.343284 0.5 0
0.343335 0.469723 0
0.373134 0.5 0
0.373191 0.469745 0
0.313433 0.5 0
0.313478 0.469741 0
0.343284 0.5 0
0.343335 0.469723 0
0.283582 0.5 0
0.283622 0.469783 0
0.313433 0.5 0
0.313478 0.469741 0
0.253731 0.5 0
0.253768 0.469742 0
0.283582 0.5 0
0.283622 0.469783 0
0.223881 0.5 0
0.223918 0.469737 0
0.253731 0.5 0
0.253768 0.469742 0
0.19403 0.5 0
0.194064 0.46981 0
0.223881 0.5 0
0.223918 0.469737 0
0.164179 0.5 0
0.16421 0.469881 0
0.19403 0.5 0
0.194064 0.46981 0
0.134328 0.5 0
0.134355 0.46994 0
0.164179 0.5 0
0.16421 0.469881 0
0.104478 0.5 0
0.1045 0.469997 0
0.134328 0.5 0
0.134355 0.46994 0
0.074627 0.5 0
0.074645 0.470051 0
0.104478 0.5 0
0.1045 0.469997 0
0.044776 0.5 0
0.04479 0.470093 0
0.074627 0.5 0
0.074645 0.470051 0
0.014925 0.5 0
0.014935 0.47012 0
0.044776 0.5 0
0.04479 0.470093 0
-0.014925 0.5 0
-0.014918 0.470135 0
0.014925 0.5 0
0.014935 0.47012 0
-0.044776 0.5 0
-0.044771 0.470143 0
-0.014925 0.5 0
-0.014918 0.470135 0
-0.074627 0.5 0
-0.074623 0.470146 0
-0.044776 0.5 0
-0.044771 0.470143 0
-0.104478 0.5 0
-0.104496 0.469979 0
-0.074627 0.5 0
-0.074623 0.470146 0
-0.134328 0.5 0
-0.134359 0.469935 0
-0.104478 0.5 0
-0.104496 0.469979 0
-0.164179 0.5 0
-0.164225 0.469839 0
-0.134328 0.5 0
-0.134359 0.469935 0
-0.164179 0.5 0
-0.19403 0.5 0
-0.164225 0.469839 0
-0.194083 0.469797 0
-0.223881 0.5 0
-0.22394 0.469753 0
-0.19403 0.5 0
-0.194083 0.469797 0
-0.253731 0.5 0
-0.253798 0.469819 0
-0.223881 0.5 0
-0.22394 0.469753 0
-0.283582 0.5 0
-0.283647 0.470019 0
-0.253731 0.5 0
-0.253798 0.469819 0
-0.313433 0.5 0
-0.313491 0.470151 0
-0.283582 0.5 0
-0.283647 0.470019 0
-0.343284 0.5 0
-0.343348 0.470381 0
-0.313433 0.5 0
-0.313491 0.470151 0
-0.343284 0.5 0
-0.373134 0.5 0
-0.343348 0.470381 0
-0.373195 0.470395 0
-0.373134 0.5 0
-0.402985 0.5 0
-0.373195 0.470395 0
-0.403049 0.470404 0
-0.432836 0.5 0
-0.432937 0.470297 0
-0.402985 0.5 0
-0.403049 0.470404 0
-0.462687 0.5 0
-0.462848 0.469995 0
-0.432836 0.5 0
-0.432937 0.470297 0
-0.492537 0.5 0
-0.492807 0.469765 0
-0.462687 0.5 0
-0.462848 0.469995 0
-0.522388 0.5 0
-0.52276 0.46958 0
-0.492537 0.5 0
-0.492807 0.469765 0
-0.552239 0.5 0
-0.55273 0.469652 0
-0.522388 0.5 0
-0.52276 0.46958 0
-0.58209 0.5 0
-0.582662 0.469731 0
-0.552239 0.5 0
-0.55273 0.469652 0
-0.61194 0.5 0
-0.612594 0.469999 0
-0.58209 0.5 0
-0.582662 0.469731 0
-0.641791 0.5 0
-0.642647 0.470419 0
-0.61194 0.5 0
-0.612594 0.469999 0
-0.671642 0.5 0
-0.672638 0.470543 0
-0.641791 0.5 0
-0.642647 0.470419 0
-0.701493 0.5 0
-0.702968 0.4698 0
-0.671642 0.5 0
-0.672638 0.470543 0
-0.701493 0.5 0
-0.731343 0.5 0
-0.702968 0.4698 0
-0.733232 0.468149 0
-0.820896 0.5 0
-0.822797 0.47207 0
-0.791045 0.5 0
-0.795702 0.469563 0
0.31 -0.5 0
0.309694 -0.471123 0
0.28 -0.5 0
0.279811 -0.471266 0
0.31 -0.5 0
0.34 -0.5 0
0.309694 -0.471123 0
0.339686 -0.471033 0
0.37 -0.5 0
0.369721 -0.471055 0
0.34 -0.5 0
0.339686 -0.471033 0
0.37 -0.5 0
0.4 -0.5 0
0.369721 -0.471055 0
0.399756 -0.470957 0
0.4 -0.5 0
0.43 -0.5 0
0.399756 -0.470957 0
0.429805 -0.470822 0
0.43 -0.5 0
0.46 -0.5 0
0.429805 -0.470822 0
0.459835 -0.470712 0
0.46 -0.5 0
0.49 -0.5 0
0.459835 -0.470712 0
0.489873 -0.470554 0
0.49 -0.5 0
0.52 -0.5 0
0.489873 -0.470554 0
0.519906 -0.470379 0
0.52 -0.5 0
0.55 -0.5 0
0.519906 -0.470379 0
0.54993 -0.470248 0
0.55 -0.5 0
0.58 -0.5 0
0.54993 -0.470248 0
0.579948 -0.470155 0
0.58 -0.5 0
0.61 -0.5 0
0.579948 -0.470155 0
0.609962 -0.470091 0
0.61 -0.5 0
0.64 -0.5 0
0.609962 -0.470091 0
0.639972 -0.47005 0
0.64 -0.5 0
0.67 -0.5 0
0.639972 -0.47005 0
0.66998 -0.470026 0
0.67 -0.5 0
0.7 -0.5 0
0.66998 -0.470026 0
0.699986 -0.470013 0
0.7 -0.5 0
0.73 -0.5 0
0.699986 -0.470013 0
0.72999 -0.470006 0
0.73 -0.5 0
0.76 -0.5 0
0.72999 -0.470006 0
0.759994 -0.470003 0
0.76 -0.5 0
0.79 -0.5 0
0.759994 -0.470003 0
0.78998 -0.469916 0
0.79 -0.5 0
0.82 -0.5 0
0.78998 -0.469916 0
0.819956 -0.469877 0
0.82 -0.5 0
0.85 -0.5 0
0.819956 -0.469877 0
0.849929 -0.469833 0
0.85 -0.5 0
0.88 -0.5 0
0.849929 -0.469833 0
0.879924 -0.469805 0
0.88 -0.5 0
0.91 -0.5 0
0.879924 -0.469805 0
0.909913 -0.469792 0
0.91 -0.5 0
0.94 -0.5 0
0.909913 -0.469792 0
0.939922 -0.469775 0
0.94 -0.5 0
0.97 -0.5 0
0.939922 -0.469775 0
0.969956 -0.46974 0
0.97 -0.5 0
1 -0.5 0
0.969956 -0.46974 0
1 -0.469697 0
-0.595745 0.095745 0
-0.574468 0.074468 0
-0.574431 0.117764 0
-0.553204 0.096309 0
-0.553191 0.053191 0
-0.53184 0.075023 0
-0.574468 0.074468 0
-0.553204 0.096309 0
-0.553191 0.053191 0
-0.531915 0.031915 0
-0.53184 0.075023 0
-0.510492 0.053733 0
-0.531915 0.031915 0
-0.510638 0.010638 0
-0.510492 0.053733 0
-0.489127 0.032461 0
-0.510638 0.010638 0
-0.489362 -0.010638 0
-0.489127 0.032461 0
-0.467791 0.011178 0
-0.489362 -0.010638 0
-0.468085 -0.031915 0
-0.467791 0.011178 0
-0.446536 -0.010172 0
-0.446809 -0.053191 0
-0.42524 -0.031466 0
-0.468085 -0.031915 0
-0.446536 -0.010172 0
-0.425532 -0.074468 0
-0.404012 -0.052824 0
-0.446809 -0.053191 0
-0.42524 -0.031466 0
-0.425532 -0.074468 0
-0.404255 -0.095745 0
-0.404012 -0.052824 0
-0.382783 -0.074175 0
-0.404255 -0.095745 0
-0.382979 -0.117021 0
-0.382783 -0.074175 0
-0.361545 -0.095511 0
-0.382979 -0.117021 0
-0.361702 -0.138298 0
-0.361545 -0.095511 0
-0.340288 -0.116831 0
-0.361702 -0.138298 0
-0.340426 -0.159574 0
-0.340288 -0.116831 0
-0.319034 -0.138159 0
-0.340426 -0.159574 0
-0.319149 -0.180851 0
-0.319034 -0.138159 0
-0.297766 -0.159484 0
-0.319149 -0.180851 0
-0.297872 -0.202128 0
-0.297766 -0.159484 0
-0.276489 -0.180797 0
-0.297872 -0.202128 0
-0.276596 -0.223404 0
-0.276489 -0.180797 0
-0.255087 -0.202105 0
-0.255319 -0.244681 0
-0.233674 -0.223466 0
-0.276596 -0.223404 0
-0.255087 -0.202105 0
-0.234043 -0.265957 0
-0.212119 -0.244916 0
-0.255319 -0.244681 0
-0.233674 -0.223466 0
-0.234043 -0.265957 0
-0.212766 -0.287234 0
-0.212119 -0.244916 0
-0.190657 -0.266392 0
-0.191489 -0.308511 0
-0.169261 -0.287934 0
-0.212766 -0.287234 0
-0.190657 -0.266392 0
-0.170213 -0.329787 0
-0.147854 -0.309624 0
-0.191489 -0.308511 0
-0.169261 -0.287934 0
-0.170213 -0.329787 0
-0.148936 -0.351064 0
-0.147854 -0.309624 0
-0.126431 -0.331364 0
-0.12766 -0.37234 0
-0.105256 -0.353368 0
-0.148936 -0.351064 0
-0.126431 -0.331364 0
-0.12766 -0.37234 0
-0.106383 -0.393617 0
-0.105256 -0.353368 0
-0.083924 -0.375263 0
-0.106383 -0.393617 0
-0.085106 -0.414894 0
-0.083924 -0.375263 0
-0.062097 -0.396824 0
-0.085106 -0.414894 0
-0.06383 -0.43617 0
-0.062097 -0.396824 0
-0.040132 -0.418076 0
-0.06383 -0.43617 0
-0.042553 -0.457447 0
-0.040132 -0.418076 0
-0.019646 -0.439891 0
-0.042553 -0.457447 0
-0.021277 -0.478723 0
-0.019646 -0.439891 0
-0.002475 -0.461393 0
-0.021277 -0.478723 0
0 -0.5 0
-0.002475 -0.461393 0
0.009599 -0.478226 0
0 -0.5 0
0.03 -0.5 0
0.009599 -0.478226 0
0.029922 -0.474701 0
0.03 -0.5 0
0.06 -0.5 0
0.029922 -0.474701 0
0.057397 -0.471689 0
0.06 -0.5 0
0.09 -0.5 0
0.057397 -0.471689 0
0.08796 -0.470463 0
0.09 -0.5 0
0.12 -0.5 0
0.08796 -0.470463 0
0.119014 -0.4708 0
[...]
POINT_DATA 7408
VECTORS momentum double
-0.00180831 0.000729436 0
-0.0159842 0.0149398 0
-0.0185306 0.000422362 0
-0.0259429 0.00784691 0
0.000173257 -0.000410787 0
8.3381e-05 -0.000418898 0
0.000228397 -0.00103932 0
7.0356e-05 -0.000977149 0
5.38268e-05 -0.000837019 0
0.000228397 -0.00103932 0
8.91986e-05 -0.000859532 0
7.0356e-05 -0.000977149 0
0.000213032 -0.00140314 0
5.38268e-05 -0.000837019 0
7.51414e-06 -0.00146301 0
8.91986e-05 -0.000859532 0
0.000352968 -0.00123121 0
0.000213032 -0.00140314 0
4.62063e-06 -0.00133943 0
7.51414e-06 -0.00146301 0
0.00040989 -0.00164859 0
0.000352968 -0.00123121 0
-2.48152e-05 -0.00156311 0
4.62063e-06 -0.00133943 0
0.000731509 -0.00139119 0
0.00040989 -0.00164859 0
-7.26176e-06 -0.00132612 0
-2.48152e-05 -0.00156311 0
0.000629899 -0.00194425 0
0.000731509 -0.00139119 0
0.000250315 -0.0007003 0
-7.26176e-06 -0.00132612 0
0.000445636 -0.00156327 0
0.000629899 -0.00194425 0
7.98985e-05 -0.00138856 0
0.000250315 -0.0007003 0
0.000315537 -0.00173232 0
7.98985e-05 -0.00138856 0
0.000568086 -0.000510348 0
0.000250315 -0.0007003 0
0.000481328 -0.00156171 0
0.000315537 -0.00173232 0
0.000314559 -0.000353682 0
0.000568086 -0.000510348 0
0.000888282 -0.00140566 0
0.000481328 -0.00156171 0
0.000276588 -0.000908434 0
0.000314559 -0.000353682 0
0.000472014 -0.00124678 0
0.000888282 -0.00140566 0
0.000128408 -0.00181888 0
0.000276588 -0.000908434 0
-0.000111554 -0.00107887 0
0.000128408 -0.00181888 0
-0.000147699 -0.00118011 0
0.000276588 -0.000908434 0
4.3955e-05 -0.00124895 0
-0.000111554 -0.00107887 0
4.11977e-05 -0.0011164 0
-0.000147699 -0.00118011 0
-9.75515e-06 -0.000787198 0
4.3955e-05 -0.00124895 0
-2.4029e-05 -0.000865431 0
4.11977e-05 -0.0011164 0
6.54427e-06 -0.00103147 0
-9.75515e-06 -0.000787198 0
1.04314e-05 -0.000988891 0
-2.4029e-05 -0.000865431 0
-1.25083e-05 -0.000577107 0
6.54427e-06 -0.00103147 0
-6.97885e-06 -0.000601276 0
1.04314e-05 -0.000988891 0
-1.6575e-05 -0.000909488 0
-1.25083e-05 -0.000577107 0
1.96259e-06 -0.000895463 0
-6.97885e-06 -0.000601276 0
-4.13717e-06 -0.000395328 0
-1.6575e-05 -0.000909488 0
-1.56746e-06 -0.000402456 0
1.96259e-06 -0.000895463 0
-0.000107049 -0.000654416 0
-9.74881e-05 -0.00174272 0
-9.82078e-05 -0.000654606 0
-8.58447e-05 -0.00174291 0
-0.000113574 -0.000654956 0
-0.000107185 -0.00174497 0
-0.000107049 -0.000654416 0
-9.74881e-05 -0.00174272 0
-0.000116001 -0.000654572 0
-0.00010927 -0.0017473 0
-0.000113574 -0.000654956 0
-0.000107185 -0.00174497 0
-0.000116847 -0.000653671 0
-0.000110625 -0.00174877 0
-0.000116001 -0.000654572 0
-0.00010927 -0.0017473 0
-0.00011403 -0.000652956 0
-0.000106918 -0.00175041 0
-0.000116847 -0.000653671 0
-0.000110625 -0.00174877 0
-0.000109239 -0.000651504 0
-0.000101701 -0.00175172 0
-0.00011403 -0.000652956 0
-0.000106918 -0.00175041 0
-9.98976e-05 -0.000650725 0
-9.2806e-05 -0.00175322 0
-0.000109239 -0.000651504 0
-0.000101701 -0.00175172 0
-8.87772e-05 -0.000649122 0
-8.15003e-05 -0.0017555 0
-9.98976e-05 -0.000650725 0
-9.2806e-05 -0.00175322 0
-7.28143e-05 -0.000647842 0
-6.84417e-05 -0.00175803 0
-8.87772e-05 -0.000649122 0
-8.15003e-05 -0.0017555 0
-5.51114e-05 -0.000647012 0
-5.26502e-05 -0.00176126 0
-7.28143e-05 -0.000647842 0
-6.84417e-05 -0.00175803 0
-3.33495e-05 -0.000645728 0
-3.53666e-05 -0.00176437 0
-5.51114e-05 -0.000647012 0
-5.26502e-05 -0.00176126 0
-9.84069e-06 -0.000644955 0
-2.11139e-05 -0.00176879 0
-3.33495e-05 -0.000645728 0
-3.53666e-05 -0.00176437 0
-9.84069e-06 -0.000644955 0
1.08734e-05 -0.000645508 0
-2.11139e-05 -0.00176879 0
-5.69867e-06 -0.00177398 0
3.02434e-05 -0.00064582 0
6.18609e-06 -0.00178108 0
1.08734e-05 -0.000645508 0
-5.69867e-06 -0.00177398 0
4.43409e-05 -0.00064849 0
1.60725e-05 -0.0017873 0
3.02434e-05 -0.00064582 0
6.18609e-06 -0.00178108 0
4.87982e-05 -0.000651124 0
2.76648e-05 -0.00179099 0
4.43409e-05 -0.00064849 0
1.60725e-05 -0.0017873 0
5.23376e-05 -0.000652308 0
3.52464e-05 -0.00179106 0
4.87982e-05 -0.000651124 0
2.76648e-05 -0.00179099 0
4.39258e-05 -0.000654263 0
3.55281e-05 -0.00178955 0
5.23376e-05 -0.000652308 0
3.52464e-05 -0.00179106 0
2.59654e-05 -0.00065482 0
2.93725e-05 -0.0017871 0
4.39258e-05 -0.000654263 0
3.55281e-05 -0.00178955 0
6.7093e-06 -0.00065386 0
1.64743e-05 -0.00178463 0
2.59654e-05 -0.00065482 0
2.93725e-05 -0.0017871 0
-7.98267e-06 -0.000652043 0
-5.75014e-07 -0.00178475 0
6.7093e-06 -0.00065386 0
1.64743e-05 -0.00178463 0
-1.83944e-05 -0.000652068 0
-1.52959e-05 -0.00178413 0
-7.98267e-06 -0.000652043 0
-5.75014e-07 -0.00178475 0
-2.54007e-05 -0.000651792 0
-2.0406e-05 -0.00178654 0
-1.83944e-05 -0.000652068 0
-1.52959e-05 -0.00178413 0
-2.09923e-05 -0.000651811 0
-1.98563e-05 -0.00178441 0
-2.54007e-05 -0.000651792 0
-2.0406e-05 -0.00178654 0
-1.19066e-06 -0.000652851 0
-4.63173e-06 -0.00177645 0
-2.09923e-05 -0.000651811 0
-1.98563e-05 -0.00178441 0
2.62251e-05 -0.00065596 0
2.71538e-05 -0.00176247 0
-1.19066e-06 -0.000652851 0
-4.63173e-06 -0.00177645 0
7.22723e-05 -0.0006595 0
8.80985e-05 -0.00174214 0
2.62251e-05 -0.00065596 0
2.71538e-05 -0.00176247 0
0.000151001 -0.000657851 0
0.000181984 -0.00171971 0
7.22723e-05 -0.0006595 0
8.80985e-05 -0.00174214 0
0.000271794 -0.000654154 0
0.000313487 -0.00168962 0
0.000151001 -0.000657851 0
0.000181984 -0.00171971 0
0.000439508 -0.000648696 0
0.00049273 -0.00164891 0
0.000271794 -0.000654154 0
0.000313487 -0.00168962 0
0.000657631 -0.000641758 0
0.000722226 -0.00159289 0
0.000439508 -0.000648696 0
0.00049273 -0.00164891 0
0.000933837 -0.000634387 0
0.00100662 -0.00151685 0
0.000657631 -0.000641758 0
0.000722226 -0.00159289 0
0.00125403 -0.000629385 0
0.00133596 -0.00141262 0
0.000933837 -0.000634387 0
0.00100662 -0.00151685 0
0.0016169 -0.000624678 0
0.00171597 -0.00127791 0
0.00125403 -0.000629385 0
0.00133596 -0.00141262 0
0.00197648 -0.000618819 0
0.00209154 -0.00110259 0
0.0016169 -0.000624678 0
0.00171597 -0.00127791 0
0.00231527 -0.000613348 0
0.00244094 -0.000879017 0
0.00197648 -0.000618819 0
0.00209154 -0.00110259 0
0.00250201 -0.000607709 0
0.00265119 -0.000595846 0
0.00231527 -0.000613348 0
0.00244094 -0.000879017 0
0.00251394 -0.00060281 0
0.00268976 -0.000246365 0
0.00250201 -0.000607709 0
0.00265119 -0.000595846 0
0.00214066 -0.000596922 0
0.00234281 0.000171138 0
0.00251394 -0.00060281 0
0.00268976 -0.000246365 0
0.00214066 -0.000596922 0
0.0013503 -0.00059049 0
0.00234281 0.000171138 0
0.00158896 0.000679 0
-0.000190229 -0.000573852 0
9.19826e-05 0.00126161 0
0.0013503 -0.00059049 0
0.00158896 0.000679 0
-0.00247239 -0.000555319 0
-0.00215577 0.00199272 0
-0.000190229 -0.000573852 0
9.19826e-05 0.00126161 0
-0.0060119 -0.000524036 0
-0.00567727 0.00283564 0
-0.00247239 -0.000555319 0
-0.00215577 0.00199272 0
-0.0107331 -0.000492186 0
-0.010401 0.00392945 0
-0.0060119 -0.000524036 0
-0.00567727 0.00283564 0
-0.0173625 -0.000440748 0
-0.0170573 0.00517494 0
-0.0107331 -0.000492186 0
-0.010401 0.00392945 0
-0.0173625 -0.000440748 0
-0.0256951 -0.000389312 0
-0.0170573 0.00517494 0
-0.025474 0.0068918 0
-0.0256951 -0.000389312 0
-0.0367546 -0.00032057 0
-0.025474 0.0068918 0
-0.0366085 0.00883334 0
-0.0500979 -0.000257348 0
-0.0501643 0.0114728 0
-0.0367546 -0.00032057 0
-0.0366085 0.00883334 0
-0.0670725 -0.000181169 0
-0.0672521 0.0143361 0
-0.0500979 -0.000257348 0
-0.0501643 0.0114728 0
-0.0866969 -0.000120761 0
-0.08735 0.017977 0
-0.0670725 -0.000181169 0
-0.0672521 0.0143361 0
-0.110469 -7.87263e-05 0
-0.111278 0.0210802 0
-0.0866969 -0.000120761 0
-0.08735 0.017977 0
-0.13641 -5.37236e-05 0
-0.138051 0.0251233 0
-0.110469 -7.87263e-05 0
-0.111278 0.0210802 0
-0.167021 -5.03886e-05 0
-0.168237 0.0279518 0
-0.13641 -5.37236e-05 0
-0.138051 0.0251233 0
-0.198925 5.46379e-05 0
-0.201737 0.0331814 0
-0.167021 -5.03886e-05 0
-0.168237 0.0279518 0
-0.238436 -0.000178958 0
-0.238259 0.0362049 0
-0.198925 5.46379e-05 0
-0.201737 0.0331814 0
-0.278026 0.000867831 0
-0.280669 0.0439602 0
-0.238436 -0.000178958 0
-0.238259 0.0362049 0
-0.330934 0.000802763 0
-0.325484 0.0417552 0
-0.278026 0.000867831 0
-0.280669 0.0439602 0
-0.330934 0.000802763 0
-0.361734 0.000208336 0
-0.325484 0.0417552 0
-0.373316 0.0308005 0
-0.331279 -0.00219076 0
-0.320128 -0.0452957 0
-0.368738 -0.00149297 0
-0.366225 -0.0529121 0
-1.98988e-05 -0.000401752 0
-3.72522e-05 -0.00090836 0
-4.13717e-06 -0.000395328 0
-1.6575e-05 -0.000909488 0
-1.98988e-05 -0.000401752 0
-4.58927e-05 -0.000403046 0
-3.72522e-05 -0.00090836 0
-5.16322e-05 -0.000911709 0
-6.91405e-05 -0.000407002 0
-7.47184e-05 -0.000907922 0
-4.58927e-05 -0.000403046 0
-5.16322e-05 -0.000911709 0
-6.91405e-05 -0.000407002 0
-8.71533e-05 -0.000408495 0
-7.47184e-05 -0.000907922 0
-9.52279e-05 -0.000908759 0
-8.71533e-05 -0.000408495 0
-0.000104118 -0.000412004 0
-9.52279e-05 -0.000908759 0
-0.000113877 -0.000909213 0
-0.000104118 -0.000412004 0
-0.000120736 -0.000413272 0
-0.000113877 -0.000909213 0
-0.000127406 -0.000913722 0
-0.000120736 -0.000413272 0
-0.000132761 -0.00041419 0
-0.000127406 -0.000913722 0
-0.000142828 -0.000918388 0
-0.000132761 -0.00041419 0
-0.000144062 -0.000416275 0
-0.000142828 -0.000918388 0
-0.000156714 -0.00092366 0
-0.000144062 -0.000416275 0
-0.000155898 -0.000418786 0
-0.000156714 -0.00092366 0
-0.00016649 -0.000927641 0
-0.000155898 -0.000418786 0
-0.000167287 -0.000420645 0
-0.00016649 -0.000927641 0
-0.000174487 -0.000932122 0
-0.000167287 -0.000420645 0
-0.000176292 -0.000421941 0
-0.000174487 -0.000932122 0
-0.000181075 -0.000935531 0
-0.000176292 -0.000421941 0
-0.000184607 -0.000423049 0
-0.000181075 -0.000935531 0
-0.000187023 -0.000938828 0
-0.000184607 -0.000423049 0
-0.000191037 -0.0004235 0
-0.000187023 -0.000938828 0
-0.000191175 -0.000941505 0
-0.000191037 -0.0004235 0
-0.000197194 -0.000423844 0
-0.000191175 -0.000941505 0
-0.000195938 -0.000944238 0
-0.000197194 -0.000423844 0
-0.000200983 -0.000424049 0
-0.000195938 -0.000944238 0
-0.000199775 -0.000947075 0
-0.000200983 -0.000424049 0
-0.000203084 -0.000424266 0
-0.000199775 -0.000947075 0
-0.0002052 -0.000950498 0
-0.000203084 -0.000424266 0
-0.000205456 -0.000425056 0
-0.0002052 -0.000950498 0
-0.000209406 -0.000953398 0
-0.000205456 -0.000425056 0
-0.000209131 -0.000425978 0
-0.000209406 -0.000953398 0
-0.000212399 -0.00095682 0
-0.000209131 -0.000425978 0
-0.000211179 -0.000426983 0
-0.000212399 -0.00095682 0
-0.000213549 -0.000960385 0
-0.000211179 -0.000426983 0
-0.000213972 -0.000427785 0
-0.000213549 -0.000960385 0
-0.000214701 -0.000963894 0
-0.000213972 -0.000427785 0
-0.000213031 -0.000428136 0
-0.000214701 -0.000963894 0
-0.000213262 -0.000967471 0
-0.000213031 -0.000428136 0
-0.000210479 -0.000428657 0
-0.000213262 -0.000967471 0
-0.000210714 -0.000970402 0
-0.000210479 -0.000428657 0
-0.000203722 -0.000428749 0
-0.000210714 -0.000970402 0
-0.000204207 -0.000972576 0
-0.000203722 -0.000428749 0
-0.00019645 -0.000428735 0
-0.000204207 -0.000972576 0
-0.000197722 -0.000973511 0
0.291743 -0.282331 0
0.167764 -0.160685 0
0.301131 -0.0982235 0
0.192276 -0.0911405 0
0.115717 -0.11447 0
0.133721 -0.0794625 0
0.167764 -0.160685 0
0.192276 -0.0911405 0
0.115717 -0.11447 0
0.0878655 -0.0873724 0
0.133721 -0.0794625 0
0.0998448 -0.0662604 0
0.0878655 -0.0873724 0
0.0702848 -0.0701896 0
0.0998448 -0.0662604 0
0.0782718 -0.056227 0
0.0702848 -0.0701896 0
0.0583221 -0.0584178 0
0.0782718 -0.056227 0
0.0638605 -0.0485317 0
0.0583221 -0.0584178 0
0.0497107 -0.0499056 0
0.0638605 -0.0485317 0
0.0535817 -0.0426333 0
0.0432197 -0.0434877 0
0.0459843 -0.0379178 0
0.0497107 -0.0499056 0
0.0535817 -0.0426333 0
0.0380878 -0.0384061 0
0.0400655 -0.0340425 0
0.0432197 -0.0434877 0
0.0459843 -0.0379178 0
0.0380878 -0.0384061 0
0.0338479 -0.0342032 0
0.0400655 -0.0340425 0
0.0352484 -0.0307153 0
0.0338479 -0.0342032 0
0.0302066 -0.030589 0
0.0352484 -0.0307153 0
0.0311852 -0.0277529 0
0.0302066 -0.030589 0
0.0269528 -0.0273503 0
0.0311852 -0.0277529 0
0.0275963 -0.0250274 0
0.0269528 -0.0273503 0
0.0239927 -0.0244024 0
0.0275963 -0.0250274 0
0.024375 -0.0224788 0
0.0239927 -0.0244024 0
0.0212311 -0.0216477 0
0.024375 -0.0224788 0
0.0213976 -0.0200458 0
0.0212311 -0.0216477 0
0.0186664 -0.0190897 0
0.0213976 -0.0200458 0
0.018666 -0.017752 0
0.0186664 -0.0190897 0
0.01626 -0.0166875 0
0.018666 -0.017752 0
0.0161113 -0.0155758 0
0.014058 -0.0144809 0
0.0137896 -0.0135601 0
0.01626 -0.0166875 0
0.0161113 -0.0155758 0
0.0120242 -0.0124435 0
0.0116208 -0.0116805 0
0.014058 -0.0144809 0
0.0137896 -0.0135601 0
0.0120242 -0.0124435 0
0.0102216 -0.0106512 0
0.0116208 -0.0116805 0
0.00972763 -0.00999105 0
0.00858002 -0.00902778 0
0.00801977 -0.00846333 0
0.0102216 -0.0106512 0
0.00972763 -0.00999105 0
0.00718392 -0.00766352 0
0.00662374 -0.00715735 0
0.00858002 -0.00902778 0
0.00801977 -0.00846333 0
0.00718392 -0.00766352 0
0.00592358 -0.00640574 0
0.00662374 -0.00715735 0
0.00534263 -0.00602739 0
0.00496531 -0.0054364 0
0.00433619 -0.00513434 0
0.00592358 -0.00640574 0
0.00534263 -0.00602739 0
0.00496531 -0.0054364 0
0.00408661 -0.00456317 0
0.00433619 -0.00513434 0
0.00341622 -0.00428783 0
0.00408661 -0.00456317 0
0.00343252 -0.00392214 0
0.00341622 -0.00428783 0
0.00281961 -0.00366607 0
0.00343252 -0.00392214 0
0.0027011 -0.00319673 0
0.00281961 -0.00366607 0
0.00217506 -0.00288703 0
0.0027011 -0.00319673 0
0.00201844 -0.00246233 0
0.00217506 -0.00288703 0
0.00191552 -0.00254457 0
0.00201844 -0.00246233 0
0.00134228 -0.00167513 0
0.00191552 -0.00254457 0
0.00131962 -0.0014827 0
0.00134228 -0.00167513 0
0.000617963 -0.000675347 0
0.00131962 -0.0014827 0
0.00101831 -0.00144909 0
0.000617963 -0.000675347 0
0.00119218 -0.000280489 0
0.00101831 -0.00144909 0
0.0011187 -0.00110985 0
0.00119218 -0.000280489 0
0.000963059 -0.000388344 0
0.0011187 -0.00110985 0
0.000564324 -0.00106806 0
0.000963059 -0.000388344 0
0.000695466 -0.00046154 0
0.000564324 -0.00106806 0
0.000614342 -0.000965078 0
0.000695466 -0.00046154 0
0.000173257 -0.000410787 0
0.000614342 -0.000965078 0
0.000228397 -0.00103932 0
-0.000204207 -0.000972576 0
-0.000197722 -0.000973511 0
-0.00020533 -0.000692704 0
-0.000199589 -0.000696325 0
-0.00020533 -0.000692704 0
-0.000199589 -0.000696325 0
-0.000210128 -0.00113443 0
-0.000205088 -0.00113744 0
-0.000210128 -0.00113443 0
-0.000205088 -0.00113744 0
-0.00021785 -0.00095594 0
-0.00021218 -0.000960396 0
-0.00021785 -0.00095594 0
-0.00021218 -0.000960396 0
-0.000226924 -0.00131797 0
-0.000223331 -0.00132356 0
-0.000226924 -0.00131797 0
-0.000223331 -0.00132356 0
-0.000239151 -0.00121684 0
-0.000234795 -0.00122296 0
-0.000239151 -0.00121684 0
-0.000234795 -0.00122296 0
-0.000251592 -0.00151522 0
-0.000248768 -0.00152267 0
-0.000267572 -0.00147086 0
-0.000251592 -0.00151522 0
-0.000264479 -0.00147919 0
-0.000248768 -0.00152267 0
-0.000267572 -0.00147086 0
-0.000264479 -0.00147919 0
-0.000285145 -0.00171364 0
-0.000282929 -0.00172304 0
-0.000285145 -0.00171364 0
-0.000282929 -0.00172304 0
-0.000306329 -0.00170597 0
-0.000304511 -0.00171695 0
-0.000306329 -0.00170597 0
-0.000304511 -0.00171695 0
-0.000331403 -0.00189416 0
-0.000331032 -0.00190641 0
-0.000331403 -0.00189416 0
-0.000331032 -0.00190641 0
-0.000361025 -0.00190433 0
-0.000362596 -0.00191887 0
-0.000361025 -0.00190433 0
-0.000362596 -0.00191887 0
-0.000397244 -0.0020335 0
-0.000404053 -0.00205031 0
-0.000397244 -0.0020335 0
-0.000404053 -0.00205031 0
-0.000439057 -0.00204378 0
-0.000453416 -0.00206297 0
-0.000439057 -0.00204378 0
-0.000453416 -0.00206297 0
-0.000487452 -0.00210472 0
-0.000514661 -0.00212628 0
-0.000487452 -0.00210472 0
-0.000514661 -0.00212628 0
-0.000537676 -0.00209872 0
-0.000582158 -0.00212074 0
-0.000537676 -0.00209872 0
-0.000582158 -0.00212074 0
-0.000585129 -0.00207971 0
-0.000650742 -0.00209985 0
-0.000585129 -0.00207971 0
-0.000650742 -0.00209985 0
-0.000618586 -0.00204913 0
-0.000705014 -0.00206252 0
-0.000618586 -0.00204913 0
-0.000705014 -0.00206252 0
-0.000628375 -0.00194964 0
-0.000728232 -0.00195203 0
-0.000628375 -0.00194964 0
-0.000728232 -0.00195203 0
-0.000606888 -0.00191701 0
-0.000705381 -0.00190547 0
-0.000606888 -0.00191701 0
-0.000705381 -0.00190547 0
-0.000556147 -0.00176619 0
-0.000638801 -0.00174497 0
-0.000556147 -0.00176619 0
-0.000638801 -0.00174497 0
-0.000486696 -0.00178204 0
-0.000546988 -0.00175509 0
-0.000486696 -0.00178204 0
-0.000546988 -0.00175509 0
-0.000409289 -0.0016009 0
-0.000447445 -0.00157443 0
-0.000409289 -0.0016009 0
-0.000447445 -0.00157443 0
-0.00033833 -0.0016944 0
-0.000358034 -0.00166968 0
-0.00033833 -0.0016944 0
-0.000358034 -0.00166968 0
-0.000271581 -0.00146134 0
-0.000278414 -0.00144284 0
-0.000271581 -0.00146134 0
-0.000278414 -0.00144284 0
-0.00022555 -0.00164455 0
-0.000226179 -0.00162813 0
-0.00022555 -0.00164455 0
-0.000226179 -0.00162813 0
-0.000178409 -0.0013187 0
-0.000173166 -0.00130562 0
-0.000178409 -0.0013187 0
-0.000173166 -0.00130562 0
-0.000147333 -0.00163151 0
-0.000141264 -0.00162083 0
-0.000147333 -0.00163151 0
-0.000141264 -0.00162083 0
-0.000113326 -0.00115579 0
-0.00010349 -0.00114906 0
-0.000113326 -0.00115579 0
-0.00010349 -0.00114906 0
-0.000104158 -0.00166042 0
-9.43165e-05 -0.00165787 0
-0.000104158 -0.00166042 0
-9.43165e-05 -0.00165787 0
-9.57548e-05 -0.000948285 0
-8.54998e-05 -0.000945982 0
-9.57548e-05 -0.000948285 0
-8.54998e-05 -0.000945982 0
-9.74881e-05 -0.00174272 0
-8.58447e-05 -0.00174291 0
0.301131 -0.0982235 0
0.192276 -0.0911405 0
0.228986 0.0192201 0
0.17764 -0.0217971 0
0.133721 -0.0794625 0
0.131493 -0.0344143 0
0.192276 -0.0911405 0
0.17764 -0.0217971 0
0.133721 -0.0794625 0
0.0998448 -0.0662604 0
0.131493 -0.0344143 0
0.101662 -0.0383162 0
0.0998448 -0.0662604 0
0.0782718 -0.056227 0
0.101662 -0.0383162 0
0.0805888 -0.0368093 0
0.0782718 -0.056227 0
0.0638605 -0.0485317 0
0.0805888 -0.0368093 0
0.0662245 -0.0349417 0
0.0638605 -0.0485317 0
0.0535817 -0.0426333 0
0.0662245 -0.0349417 0
0.0556492 -0.0323433 0
0.0459843 -0.0379178 0
0.0477306 -0.0300369 0
0.0535817 -0.0426333 0
0.0556492 -0.0323433 0
0.0400655 -0.0340425 0
0.041494 -0.0277662 0
0.0459843 -0.0379178 0
0.0477306 -0.0300369 0
0.0400655 -0.0340425 0
0.0352484 -0.0307153 0
0.041494 -0.0277662 0
0.036383 -0.0256199 0
0.0352484 -0.0307153 0
0.0311852 -0.0277529 0
0.036383 -0.0256199 0
0.0320584 -0.023527 0
0.0311852 -0.0277529 0
0.0275963 -0.0250274 0
0.0320584 -0.023527 0
0.028252 -0.0214692 0
0.0275963 -0.0250274 0
0.024375 -0.0224788 0
0.028252 -0.0214692 0
0.024849 -0.0194325 0
0.024375 -0.0224788 0
0.0213976 -0.0200458 0
0.024849 -0.0194325 0
0.0217202 -0.0174228 0
0.0213976 -0.0200458 0
0.018666 -0.017752 0
0.0217202 -0.0174228 0
0.0188328 -0.0154726 0
0.018666 -0.017752 0
0.0161113 -0.0155758 0
0.0188328 -0.0154726 0
0.0161685 -0.0135855 0
0.0137896 -0.0135601 0
0.013748 -0.0117801 0
0.0161113 -0.0155758 0
0.0161685 -0.0135855 0
0.0116208 -0.0116805 0
0.0115518 -0.0101045 0
0.0137896 -0.0135601 0
0.013748 -0.0117801 0
0.0116208 -0.0116805 0
0.00972763 -0.00999105 0
0.0115518 -0.0101045 0
0.00960871 -0.00858779 0
0.00801977 -0.00846333 0
0.00784309 -0.00727144 0
0.00972763 -0.00999105 0
0.00960871 -0.00858779 0
0.00662374 -0.00715735 0
0.00636183 -0.00610504 0
0.00801977 -0.00846333 0
0.00784309 -0.00727144 0
0.00662374 -0.00715735 0
0.00534263 -0.00602739 0
0.00636183 -0.00610504 0
0.00500087 -0.00503498 0
0.00433619 -0.00513434 0
0.00397824 -0.00413966 0
0.00534263 -0.00602739 0
0.00500087 -0.00503498 0
0.00433619 -0.00513434 0
0.00341622 -0.00428783 0
0.00397824 -0.00413966 0
0.00303134 -0.00350823 0
0.00341622 -0.00428783 0
0.00281961 -0.00366607 0
0.00303134 -0.00350823 0
0.00255428 -0.00289057 0
0.00281961 -0.00366607 0
0.00217506 -0.00288703 0
0.00255428 -0.00289057 0
0.00179808 -0.00242666 0
0.00217506 -0.00288703 0
0.00191552 -0.00254457 0
0.00179808 -0.00242666 0
0.00167106 -0.00194452 0
0.00129742 -0.000691865 0
0.0011187 -0.00110985 0
0.000706539 -0.00109417 0
0.000564324 -0.00106806 0
0.000706539 -0.00109417 0
0.000564324 -0.00106806 0
0.000508037 -0.00110141 0
0.000614342 -0.000965078 0
0.000508037 -0.00110141 0
0.000614342 -0.000965078 0
5.38268e-05 -0.000837019 0