# vtk DataFile Version 3.0
#This file was generated by the deal.II library on 2016/12/19 at 17:17:54
ASCII
DATASET UNSTRUCTURED_GRID

POINTS 5664 double
-1 -1 -1
-0.5 -1 -1
-1 -0.5 -1
-0.5 -0.5 -1
-1 -1 -0.5
-0.5 -1 -0.5
-1 -0.5 -0.5
-0.5 -0.5 -0.5
-0.5 -1 -1
0 -1 -1
-0.5 -0.5 -1
0 -0.5 -1
-0.5 -1 -0.5
0 -1 -0.5
-0.5 -0.5 -0.5
0 -0.5 -0.5
-1 -1 -0.5
-0.5 -1 -0.5
-1 -0.5 -0.5
-0.5 -0.5 -0.5
-1 -1 0
-0.5 -1 0
-1 -0.5 0
-0.5 -0.5 3.46945e-18
0 -1 -1
0.5 -1 -1
0 -0.5 -1
0.5 -0.5 -1
0 -1 -0.5
0.5 -1 -0.5
0 -0.5 -0.5
0.5 -0.5 -0.5
0.5 -1 -1
1 -1 -1
0.5 -0.5 -1
1 -0.5 -1
0.5 -1 -0.5
1 -1 -0.5
0.5 -0.5 -0.5
1 -0.5 -0.5
0.5 -0.5 -1
1 -0.5 -1
0.5 0 -1
1 0 -1
0.5 -0.5 -0.5
1 -0.5 -0.5
0.5 0 -0.5
1 0 -0.5
-1 0 -1
-0.5 0 -1
-1 0.5 -1
-0.5 0.5 -1
-1 0 -0.5
-0.5 0 -0.5
-1 0.5 -0.5
-0.5 0.5 -0.5
-1 0.5 -1
-0.5 0.5 -1
-1 1 -1
-0.5 1 -1
-1 0.5 -0.5
-0.5 0.5 -0.5
-1 1 -0.5
-0.5 1 -0.5
-0.5 0.5 -1
0 0.5 -1
-0.5 1 -1
0 1 -1
-0.5 0.5 -0.5
0 0.5 -0.5
-0.5 1 -0.5
0 1 -0.5
0 0.5 -1
0.5 0.5 -1
0 1 -1
0.5 1 -1
0 0.5 -0.5
0.5 0.5 -0.5
0 1 -0.5
0.5 1 -0.5
0.5 0.5 -1
1 0.5 -1
0.5 1 -1
1 1 -1
0.5 0.5 -0.5
1 0.5 -0.5
0.5 1 -0.5
1 1 -0.5
0.5 0.5 -0.5
1 0.5 -0.5
0.5 1 -0.5
1 1 -0.5
0.5 0.5 3.46945e-18
1 0.5 0
0.5 1 0
1 1 0
-1 -1 0
-0.5 -1 0
-1 -0.5 0
-0.5 -0.5 3.46945e-18
-1 -1 0.5
-0.5 -1 0.5
-1 -0.5 0.5
-0.5 -0.5 0.5
-1 -1 0.5
-0.5 -1 0.5
-1 -0.5 0.5
-0.5 -0.5 0.5
-1 -1 1
-0.5 -1 1
-1 -0.5 1
-0.5 -0.5 1
-0.5 -1 0.5
0 -1 0.5
-0.5 -0.5 0.5
0 -0.5 0.5
-0.5 -1 1
0 -1 1
-0.5 -0.5 1
0 -0.5 1
0 -1 0.5
0.5 -1 0.5
0 -0.5 0.5
0.5 -0.5 0.5
0 -1 1
0.5 -1 1
0 -0.5 1
0.5 -0.5 1
0.5 -1 0.5
1 -1 0.5
0.5 -0.5 0.5
1 -0.5 0.5
0.5 -1 1
1 -1 1
0.5 -0.5 1
1 -0.5 1
0.5 -0.5 0.5
1 -0.5 0.5
0.5 0 0.5
1 0 0.5
0.5 -0.5 1
1 -0.5 1
0.5 0 1
1 0 1
-1 0 0.5
-0.5 0 0.5
-1 0.5 0.5
-0.5 0.5 0.5
-1 0 1
-0.5 0 1
-1 0.5 1
-0.5 0.5 1
-1 0.5 0.5
-0.5 0.5 0.5
-1 1 0.5
-0.5 1 0.5
-1 0.5 1
-0.5 0.5 1
-1 1 1
-0.5 1 1
-0.5 0.5 0.5
0 0.5 0.5
-0.5 1 0.5
0 1 0.5
-0.5 0.5 1
0 0.5 1
-0.5 1 1
0 1 1
0.5 0.5 3.46945e-18
1 0.5 0
0.5 1 0
1 1 0
0.5 0.5 0.5
1 0.5 0.5
0.5 1 0.5
1 1 0.5
0 0.5 0.5
0.5 0.5 0.5
0 1 0.5
0.5 1 0.5
0 0.5 1
0.5 0.5 1
0 1 1
0.5 1 1
0.5 0.5 0.5
1 0.5 0.5
0.5 1 0.5
1 1 0.5
0.5 0.5 1
1 0.5 1
0.5 1 1
1 1 1
-1 -0.5 -0.5
-0.75 -0.5 -0.5
-1 -0.25 -0.5
-0.75 -0.25 -0.5
-1 -0.5 -0.25
-0.75 -0.5 -0.25
-1 -0.25 -0.25
-0.75 -0.25 -0.25
-0.75 -0.5 -0.5
-0.5 -0.5 -0.5
-0.75 -0.25 -0.5
-0.5 -0.25 -0.5
-0.75 -0.5 -0.25
-0.5 -0.5 -0.25
-0.75 -0.25 -0.25
-0.5 -0.25 -0.25
-1 -0.25 -0.5
-0.75 -0.25 -0.5
-1 0 -0.5
-0.75 0 -0.5
-1 -0.25 -0.25
-0.75 -0.25 -0.25
-1 0 -0.25
-0.75 0 -0.25
-0.75 -0.25 -0.5
-0.5 -0.25 -0.5
-0.75 0 -0.5
-0.5 0 -0.5
-0.75 -0.25 -0.25
-0.5 -0.25 -0.25
-0.75 0 -0.25
-0.5 0 -0.25
-1 -0.5 -0.25
-0.75 -0.5 -0.25
-1 -0.25 -0.25
-0.75 -0.25 -0.25
-1 -0.5 0
-0.75 -0.5 1.73472e-18
-1 -0.25 0
-0.75 -0.25 2.60209e-18
-0.75 -0.5 -0.25
-0.5 -0.5 -0.25
-0.75 -0.25 -0.25
-0.5 -0.25 -0.25
-0.75 -0.5 1.73472e-18
-0.5 -0.5 3.46945e-18
-0.75 -0.25 2.60209e-18
-0.5 -0.25 5.20417e-18
-1 -0.25 -0.25
-0.75 -0.25 -0.25
-1 0 -0.25
-0.75 0 -0.25
-1 -0.25 0
-0.75 -0.25 2.60209e-18
-1 0 0
-0.75 0 3.46945e-18
-0.5 -0.5 -0.5
-0.25 -0.5 -0.5
-0.5 -0.25 -0.5
-0.25 -0.25 -0.5
-0.5 -0.5 -0.25
-0.25 -0.5 -0.25
-0.5 -0.25 -0.25
-0.25 -0.25 -0.25
-0.25 -0.5 -0.5
0 -0.5 -0.5
-0.25 -0.25 -0.5
0 -0.25 -0.5
-0.25 -0.5 -0.25
0 -0.5 -0.25
-0.25 -0.25 -0.25
0 -0.25 -0.25
-0.5 -0.5 -0.25
-0.25 -0.5 -0.25
-0.5 -0.25 -0.25
-0.25 -0.25 -0.25
-0.5 -0.5 3.46945e-18
-0.25 -0.5 5.20417e-18
-0.5 -0.25 5.20417e-18
-0.25 -0.25 7.80626e-18
0 -1 -0.5
0.25 -1 -0.5
0 -0.75 -0.5
0.25 -0.75 -0.5
0 -1 -0.25
0.25 -1 -0.25
0 -0.75 -0.25
0.25 -0.75 -0.25
0.25 -1 -0.5
0.5 -1 -0.5
0.25 -0.75 -0.5
0.5 -0.75 -0.5
0.25 -1 -0.25
0.5 -1 -0.25
0.25 -0.75 -0.25
0.5 -0.75 -0.25
0 -0.75 -0.5
0.25 -0.75 -0.5
0 -0.5 -0.5
0.25 -0.5 -0.5
0 -0.75 -0.25
0.25 -0.75 -0.25
0 -0.5 -0.25
0.25 -0.5 -0.25
0.25 -0.75 -0.5
0.5 -0.75 -0.5
0.25 -0.5 -0.5
0.5 -0.5 -0.5
0.25 -0.75 -0.25
0.5 -0.75 -0.25
0.25 -0.5 -0.25
0.5 -0.5 -0.25
0 -1 -0.25
0.25 -1 -0.25
0 -0.75 -0.25
0.25 -0.75 -0.25
0 -1 0
0.25 -1 0
0 -0.75 3.46945e-18
0.25 -0.75 2.60209e-18
0.25 -1 -0.25
0.5 -1 -0.25
0.25 -0.75 -0.25
0.5 -0.75 -0.25
0.25 -1 0
0.5 -1 0
0.25 -0.75 2.60209e-18
0.5 -0.75 1.73472e-18
0 -0.75 -0.25
0.25 -0.75 -0.25
0 -0.5 -0.25
0.25 -0.5 -0.25
0 -0.75 3.46945e-18
0.25 -0.75 2.60209e-18
0 -0.5 6.93889e-18
0.25 -0.5 5.20417e-18
0.25 -0.75 -0.25
0.5 -0.75 -0.25
0.25 -0.5 -0.25
0.5 -0.5 -0.25
0.25 -0.75 2.60209e-18
0.5 -0.75 1.73472e-18
0.25 -0.5 5.20417e-18
0.5 -0.5 3.46945e-18
0 -0.5 -0.5
0.25 -0.5 -0.5
0 -0.25 -0.5
0.25 -0.25 -0.5
0 -0.5 -0.25
0.25 -0.5 -0.25
0 -0.25 -0.25
0.25 -0.25 -0.25
0.25 -0.5 -0.5
0.5 -0.5 -0.5
0.25 -0.25 -0.5
0.5 -0.25 -0.5
0.25 -0.5 -0.25
0.5 -0.5 -0.25
0.25 -0.25 -0.25
0.5 -0.25 -0.25
0.25 -0.25 -0.5
0.5 -0.25 -0.5
0.25 0 -0.5
0.5 0 -0.5
0.25 -0.25 -0.25
0.5 -0.25 -0.25
0.25 0 -0.25
0.5 0 -0.25
0.5 -0.5 -0.5
0.75 -0.5 -0.5
0.5 -0.25 -0.5
0.75 -0.25 -0.5
0.5 -0.5 -0.25
0.75 -0.5 -0.25
0.5 -0.25 -0.25
0.75 -0.25 -0.25
0.75 -0.5 -0.5
1 -0.5 -0.5
0.75 -0.25 -0.5
1 -0.25 -0.5
0.75 -0.5 -0.25
1 -0.5 -0.25
0.75 -0.25 -0.25
1 -0.25 -0.25
0.5 -0.25 -0.5
0.75 -0.25 -0.5
0.5 0 -0.5
0.75 0 -0.5
0.5 -0.25 -0.25
0.75 -0.25 -0.25
0.5 0 -0.25
0.75 0 -0.25
0.75 -0.25 -0.5
1 -0.25 -0.5
0.75 0 -0.5
1 0 -0.5
0.75 -0.25 -0.25
1 -0.25 -0.25
0.75 0 -0.25
1 0 -0.25
0.75 -0.5 -0.25
1 -0.5 -0.25
0.75 -0.25 -0.25
1 -0.25 -0.25
0.75 -0.5 1.73472e-18
1 -0.5 0
0.75 -0.25 2.60209e-18
1 -0.25 0
0.75 -0.25 -0.25
1 -0.25 -0.25
0.75 0 -0.25
1 0 -0.25
0.75 -0.25 2.60209e-18
1 -0.25 0
0.75 0 3.46945e-18
1 0 0
-1 0 -0.5
-0.75 0 -0.5
-1 0.25 -0.5
-0.75 0.25 -0.5
-1 0 -0.25
-0.75 0 -0.25
-1 0.25 -0.25
-0.75 0.25 -0.25
-0.75 0 -0.5
-0.5 0 -0.5
-0.75 0.25 -0.5
-0.5 0.25 -0.5
-0.75 0 -0.25
-0.5 0 -0.25
-0.75 0.25 -0.25
-0.5 0.25 -0.25
-1 0.25 -0.5
-0.75 0.25 -0.5
-1 0.5 -0.5
-0.75 0.5 -0.5
-1 0.25 -0.25
-0.75 0.25 -0.25
-1 0.5 -0.25
-0.75 0.5 -0.25
-0.75 0.25 -0.5
-0.5 0.25 -0.5
-0.75 0.5 -0.5
-0.5 0.5 -0.5
-0.75 0.25 -0.25
-0.5 0.25 -0.25
-0.75 0.5 -0.25
-0.5 0.5 -0.25
-1 0 -0.25
-0.75 0 -0.25
-1 0.25 -0.25
-0.75 0.25 -0.25
-1 0 0
-0.75 0 3.46945e-18
-1 0.25 0
-0.75 0.25 2.60209e-18
-1 0.25 -0.25
-0.75 0.25 -0.25
-1 0.5 -0.25
-0.75 0.5 -0.25
-1 0.25 0
-0.75 0.25 2.60209e-18
-1 0.5 0
-0.75 0.5 1.73472e-18
-0.5 0 -0.5
-0.25 0 -0.5
-0.5 0.25 -0.5
-0.25 0.25 -0.5
-0.5 0 -0.25
-0.25 0 -0.25
-0.5 0.25 -0.25
-0.25 0.25 -0.25
-0.5 0.25 -0.5
-0.25 0.25 -0.5
-0.5 0.5 -0.5
-0.25 0.5 -0.5
-0.5 0.25 -0.25
-0.25 0.25 -0.25
-0.5 0.5 -0.25
-0.25 0.5 -0.25
-0.25 0.25 -0.5
0 0.25 -0.5
-0.25 0.5 -0.5
0 0.5 -0.5
-0.25 0.25 -0.25
0 0.25 -0.25
-0.25 0.5 -0.25
0 0.5 -0.25
-0.5 0.5 -0.5
-0.25 0.5 -0.5
-0.5 0.75 -0.5
-0.25 0.75 -0.5
-0.5 0.5 -0.25
-0.25 0.5 -0.25
-0.5 0.75 -0.25
-0.25 0.75 -0.25
-0.25 0.5 -0.5
0 0.5 -0.5
-0.25 0.75 -0.5
0 0.75 -0.5
-0.25 0.5 -0.25
0 0.5 -0.25
-0.25 0.75 -0.25
0 0.75 -0.25
-0.5 0.75 -0.5
-0.25 0.75 -0.5
-0.5 1 -0.5
-0.25 1 -0.5
-0.5 0.75 -0.25
-0.25 0.75 -0.25
-0.5 1 -0.25
-0.25 1 -0.25
-0.25 0.75 -0.5
0 0.75 -0.5
-0.25 1 -0.5
0 1 -0.5
-0.25 0.75 -0.25
0 0.75 -0.25
-0.25 1 -0.25
0 1 -0.25
-0.5 0.5 -0.25
-0.25 0.5 -0.25
-0.5 0.75 -0.25
-0.25 0.75 -0.25
-0.5 0.5 3.46945e-18
-0.25 0.5 5.20417e-18
-0.5 0.75 1.73472e-18
-0.25 0.75 2.60209e-18
-0.25 0.5 -0.25
0 0.5 -0.25
-0.25 0.75 -0.25
0 0.75 -0.25
-0.25 0.5 5.20417e-18
0 0.5 6.93889e-18
-0.25 0.75 2.60209e-18
0 0.75 3.46945e-18
-0.5 0.75 -0.25
-0.25 0.75 -0.25
-0.5 1 -0.25
-0.25 1 -0.25
-0.5 0.75 1.73472e-18
-0.25 0.75 2.60209e-18
-0.5 1 0
-0.25 1 0
-0.25 0.75 -0.25
0 0.75 -0.25
-0.25 1 -0.25
0 1 -0.25
-0.25 0.75 2.60209e-18
0 0.75 3.46945e-18
-0.25 1 0
0 1 0
0 0.25 -0.5
0.25 0.25 -0.5
0 0.5 -0.5
0.25 0.5 -0.5
0 0.25 -0.25
0.25 0.25 -0.25
0 0.5 -0.25
0.25 0.5 -0.25
0.25 0.25 -0.5
0.5 0.25 -0.5
0.25 0.5 -0.5
0.5 0.5 -0.5
0.25 0.25 -0.25
0.5 0.25 -0.25
0.25 0.5 -0.25
0.5 0.5 -0.25
0.25 0.25 -0.25
0.5 0.25 -0.25
0.25 0.5 -0.25
0.5 0.5 -0.25
0.25 0.25 7.80626e-18
0.5 0.25 5.20417e-18
0.25 0.5 5.20417e-18
0.5 0.5 3.46945e-18
0.5 0 -0.5
0.75 0 -0.5
0.5 0.25 -0.5
0.75 0.25 -0.5
0.5 0 -0.25
0.75 0 -0.25
0.5 0.25 -0.25
0.75 0.25 -0.25
0.75 0 -0.5
1 0 -0.5
0.75 0.25 -0.5
1 0.25 -0.5
0.75 0 -0.25
1 0 -0.25
0.75 0.25 -0.25
1 0.25 -0.25
0.5 0.25 -0.5
0.75 0.25 -0.5
0.5 0.5 -0.5
0.75 0.5 -0.5
0.5 0.25 -0.25
0.75 0.25 -0.25
0.5 0.5 -0.25
0.75 0.5 -0.25
0.75 0.25 -0.5
1 0.25 -0.5
0.75 0.5 -0.5
1 0.5 -0.5
0.75 0.25 -0.25
1 0.25 -0.25
0.75 0.5 -0.25
1 0.5 -0.25
0.75 0 -0.25
1 0 -0.25
0.75 0.25 -0.25
1 0.25 -0.25
0.75 0 3.46945e-18
1 0 0
0.75 0.25 2.60209e-18
1 0.25 0
0.5 0.25 -0.25
0.75 0.25 -0.25
0.5 0.5 -0.25
0.75 0.5 -0.25
0.5 0.25 5.20417e-18
0.75 0.25 2.60209e-18
0.5 0.5 3.46945e-18
0.75 0.5 1.73472e-18
0.75 0.25 -0.25
1 0.25 -0.25
0.75 0.5 -0.25
1 0.5 -0.25
0.75 0.25 2.60209e-18
1 0.25 0
0.75 0.5 1.73472e-18
1 0.5 0
-1 -0.5 0
-0.75 -0.5 1.73472e-18
-1 -0.25 0
-0.75 -0.25 2.60209e-18
-1 -0.5 0.25
-0.75 -0.5 0.25
-1 -0.25 0.25
-0.75 -0.25 0.25
-0.75 -0.5 1.73472e-18
-0.5 -0.5 3.46945e-18
-0.75 -0.25 2.60209e-18
-0.5 -0.25 5.20417e-18
-0.75 -0.5 0.25
-0.5 -0.5 0.25
-0.75 -0.25 0.25
-0.5 -0.25 0.25
-1 -0.25 0
-0.75 -0.25 2.60209e-18
-1 0 0
-0.75 0 3.46945e-18
-1 -0.25 0.25
-0.75 -0.25 0.25
-1 0 0.25
-0.75 0 0.25
-1 -0.5 0.25
-0.75 -0.5 0.25
-1 -0.25 0.25
-0.75 -0.25 0.25
-1 -0.5 0.5
-0.75 -0.5 0.5
-1 -0.25 0.5
-0.75 -0.25 0.5
-0.75 -0.5 0.25
-0.5 -0.5 0.25
-0.75 -0.25 0.25
-0.5 -0.25 0.25
-0.75 -0.5 0.5
-0.5 -0.5 0.5
-0.75 -0.25 0.5
-0.5 -0.25 0.5
-1 -0.25 0.25
-0.75 -0.25 0.25
-1 0 0.25
-0.75 0 0.25
-1 -0.25 0.5
-0.75 -0.25 0.5
-1 0 0.5
-0.75 0 0.5
-0.75 -0.25 0.25
-0.5 -0.25 0.25
-0.75 0 0.25
-0.5 0 0.25
-0.75 -0.25 0.5
-0.5 -0.25 0.5
-0.75 0 0.5
-0.5 0 0.5
-0.5 -0.5 3.46945e-18
-0.25 -0.5 5.20417e-18
-0.5 -0.25 5.20417e-18
-0.25 -0.25 7.80626e-18
-0.5 -0.5 0.25
-0.25 -0.5 0.25
-0.5 -0.25 0.25
-0.25 -0.25 0.25
-0.5 -0.5 0.25
-0.25 -0.5 0.25
-0.5 -0.25 0.25
-0.25 -0.25 0.25
-0.5 -0.5 0.5
-0.25 -0.5 0.5
-0.5 -0.25 0.5
-0.25 -0.25 0.5
-0.25 -0.5 0.25
0 -0.5 0.25
-0.25 -0.25 0.25
0 -0.25 0.25
-0.25 -0.5 0.5
0 -0.5 0.5
-0.25 -0.25 0.5
0 -0.25 0.5
0 -1 0
[...]
POINT_DATA 5664
SCALARS x_displacement double 1
LOOKUP_TABLE default
0 0 0 0 0 0 0 0.000946459 0 0 0 0 0 0 0.000946459 0.00085977 0 0 0 0.000946459 0 0 0 0.00175334 0 0 0 0 0 0 0.00085977 0.000338943 0 0 0 0 0 0 0.000338943 0 0 0 0 0 0.000338943 0 0.00114331 0 0 0 0 0 0 0.00114331 0 0.000338943 0 0 0 0 0 0.000338943 0 0 0 0 0 0 0.000338943 0.00085977 0 0 0 0 0 0 0.00085977 0.000946459 0 0 0 0 0 0 0.000946459 0 0 0 0.000946459 0 0 0 0.00175334 0 0 0 0 0 0 0.00175334 0 0 0 0.000946459 0 0 0 0.000946459 0 0 0 0 0 0 0.000946459 0.00085977 0 0 0 0 0 0 0.00085977 0.000338943 0 0 0 0 0 0 0.000338943 0 0 0 0 0 0.000338943 0 0.00114331 0 0 0 0 0 0 0.00114331 0 0.000338943 0 0 0 0 0 0.000338943 0 0 0 0 0 0 0.000338943 0.00085977 0 0 0 0 0 0 0.00175334 0 0 0 0.000946459 0 0 0 0.00085977 0.000946459 0 0 0 0 0 0 0.000946459 0 0 0 0 0 0 0 0 0.000473229 0 0.000700113 0 0.000674949 0 0.00186095 0.000473229 0.000946459 0.000700113 0.00124594 0.000674949 0.0013499 0.00186095 0.0032763 0 0.000700113 0 0.000571657 0 0.00186095 0 0.00281049 0.000700113 0.00124594 0.000571657 0.00114331 0.00186095 0.0032763 0.00281049 0.00471783 0 0.000674949 0 0.00186095 0 0.00087667 0 0.00301159 0.000674949 0.0013499 0.00186095 0.0032763 0.00087667 0.00175334 0.00301159 0.00525982 0 0.00186095 0 0.00281049 0 0.00301159 0 0.00611646 0.000946459 0.000903115 0.00124594 0.00168215 0.0013499 0.00187629 0.0032763 0.00379496 0.000903115 0.00085977 0.00168215 0.00164554 0.00187629 0.00163896 0.00379496 0.00316305 0.0013499 0.00187629 0.0032763 0.00379496 0.00175334 0.002249 0.00525982 0.00581807 0 0 0.000429885 0.000299678 0 0 0.000562724 0.00027518 0 0 0.000299678 0.000169471 0 0 0.00027518 6.30847e-05 0.000429885 0.000299678 0.00085977 0.000599357 0.000562724 0.00027518 0.00163896 0.00103691 0.000299678 0.000169471 0.000599357 0.000338943 0.00027518 6.30847e-05 0.00103691 0.000592532 0 0 0.000562724 0.00027518 0 0 0.00065639 0.000303378 0 0 0.00027518 6.30847e-05 0 0 0.000303378 4.32789e-05 0.000562724 0.00027518 0.00163896 0.00103691 0.00065639 0.000303378 0.00202465 0.00126987 0.00027518 6.30847e-05 0.00103691 0.000592532 0.000303378 4.32789e-05 0.00126987 0.000838719 0.00085977 0.000599357 0.00164554 0.00126 0.00163896 0.00103691 0.00316305 0.00263567 0.000599357 0.000338943 0.00126 0.000741129 0.00103691 0.000592532 0.00263567 0.00238157 0.00126 0.000741129 0.00175834 0.00114331 0.00263567 0.00238157 0.00466181 0.00471783 0.000338943 0.000169471 0.000741129 0.000370564 0.000592532 0.000350976 0.00238157 0.00149343 0.000169471 0 0.000370564 0 0.000350976 0 0.00149343 0 0.000741129 0.000370564 0.00114331 0.000571657 0.00238157 0.00149343 0.00471783 0.00281049 0.000370564 0 0.000571657 0 0.00149343 0 0.00281049 0 0.000350976 0 0.00149343 0 0.000418248 0 0.00255251 0 0.00149343 0 0.00281049 0 0.00255251 0 0.00611646 0 0 0.000571657 0 0.000370564 0 0.00281049 0 0.00149343 0.000571657 0.00114331 0.000370564 0.000741129 0.00281049 0.00471783 0.00149343 0.00238157 0 0.000370564 0 0.000169471 0 0.00149343 0 0.000350976 0.000370564 0.000741129 0.000169471 0.000338943 0.00149343 0.00238157 0.000350976 0.000592532 0 0.00281049 0 0.00149343 0 0.00611646 0 0.00255251 0 0.00149343 0 0.000350976 0 0.00255251 0 0.000418248 0.00114331 0.00175834 0.000741129 0.00126 0.00471783 0.00466181 0.00238157 0.00263567 0.000741129 0.00126 0.000338943 0.000599357 0.00238157 0.00263567 0.000592532 0.00103691 0.00126 0.00164554 0.000599357 0.00085977 0.00263567 0.00316305 0.00103691 0.00163896 0.000338943 0.000599357 0.000169471 0.000299678 0.000592532 0.00103691 6.30847e-05 0.00027518 0.000599357 0.00085977 0.000299678 0.000429885 0.00103691 0.00163896 0.00027518 0.000562724 0.000169471 0.000299678 0 0 6.30847e-05 0.00027518 0 0 0.000299678 0.000429885 0 0 0.00027518 0.000562724 0 0 0.000592532 0.00103691 6.30847e-05 0.00027518 0.000838719 0.00126987 4.32789e-05 0.000303378 0.00103691 0.00163896 0.00027518 0.000562724 0.00126987 0.00202465 0.000303378 0.00065639 6.30847e-05 0.00027518 0 0 4.32789e-05 0.000303378 0 0 0.00027518 0.000562724 0 0 0.000303378 0.00065639 0 0 0.00164554 0.00168215 0.00085977 0.000903115 0.00316305 0.00379496 0.00163896 0.00187629 0.00168215 0.00124594 0.000903115 0.000946459 0.00379496 0.0032763 0.00187629 0.0013499 0.00379496 0.0032763 0.00187629 0.0013499 0.00581807 0.00525982 0.002249 0.00175334 0.00114331 0.000571657 0.00124594 0.000700113 0.00471783 0.00281049 0.0032763 0.00186095 0.000571657 0 0.000700113 0 0.00281049 0 0.00186095 0 0.00124594 0.000700113 0.000946459 0.000473229 0.0032763 0.00186095 0.0013499 0.000674949 0.000700113 0 0.000473229 0 0.00186095 0 0.000674949 0 0.00281049 0 0.00186095 0 0.00611646 0 0.00301159 0 0.0032763 0.00186095 0.0013499 0.000674949 0.00525982 0.00301159 0.00175334 0.00087667 0.00186095 0 0.000674949 0 0.00301159 0 0.00087667 0 0 0.00087667 0 0.00301159 0 0.000674949 0 0.00186095 0.00087667 0.00175334 0.00301159 0.00525982 0.000674949 0.0013499 0.00186095 0.0032763 0 0.00301159 0 0.00611646 0 0.00186095 0 0.00281049 0 0.000674949 0 0.00186095 0 0.000473229 0 0.000700113 0.000674949 0.0013499 0.00186095 0.0032763 0.000473229 0.000946459 0.000700113 0.00124594 0 0.00186095 0 0.00281049 0 0.000700113 0 0.000571657 0.00186095 0.0032763 0.00281049 0.00471783 0.000700113 0.00124594 0.000571657 0.00114331 0.00175334 0.002249 0.00525982 0.00581807 0.0013499 0.00187629 0.0032763 0.00379496 0.0013499 0.00187629 0.0032763 0.00379496 0.000946459 0.000903115 0.00124594 0.00168215 0.00187629 0.00163896 0.00379496 0.00316305 0.000903115 0.00085977 0.00168215 0.00164554 0 0 0.00065639 0.000303378 0 0 0.000562724 0.00027518 0 0 0.000303378 4.32789e-05 0 0 0.00027518 6.30847e-05 0.00065639 0.000303378 0.00202465 0.00126987 0.000562724 0.00027518 0.00163896 0.00103691 0.000303378 4.32789e-05 0.00126987 0.000838719 0.00027518 6.30847e-05 0.00103691 0.000592532 0 0 0.000562724 0.00027518 0 0 0.000429885 0.000299678 0 0 0.00027518 6.30847e-05 0 0 0.000299678 0.000169471 0.000562724 0.00027518 0.00163896 0.00103691 0.000429885 0.000299678 0.00085977 0.000599357 0.00027518 6.30847e-05 0.00103691 0.000592532 0.000299678 0.000169471 0.000599357 0.000338943 0.00163896 0.00103691 0.00316305 0.00263567 0.00085977 0.000599357 0.00164554 0.00126 0.00103691 0.000592532 0.00263567 0.00238157 0.000599357 0.000338943 0.00126 0.000741129 0.00263567 0.00238157 0.00466181 0.00471783 0.00126 0.000741129 0.00175834 0.00114331 0.000418248 0 0.00255251 0 0.000350976 0 0.00149343 0 0.00255251 0 0.00611646 0 0.00149343 0 0.00281049 0 0.000592532 0.000350976 0.00238157 0.00149343 0.000338943 0.000169471 0.000741129 0.000370564 0.000350976 0 0.00149343 0 0.000169471 0 0.000370564 0 0.00238157 0.00149343 0.00471783 0.00281049 0.000741129 0.000370564 0.00114331 0.000571657 0.00149343 0 0.00281049 0 0.000370564 0 0.000571657 0 0 0.00611646 0 0.00255251 0 0.00281049 0 0.00149343 0 0.00255251 0 0.000418248 0 0.00149343 0 0.000350976 0 0.00281049 0 0.00149343 0 0.000571657 0 0.000370564 0.00281049 0.00471783 0.00149343 0.00238157 0.000571657 0.00114331 0.000370564 0.000741129 0 0.00149343 0 0.000350976 0 0.000370564 0 0.000169471 0.00149343 0.00238157 0.000350976 0.000592532 0.000370564 0.000741129 0.000169471 0.000338943 0.00471783 0.00466181 0.00238157 0.00263567 0.00114331 0.00175834 0.000741129 0.00126 0.00238157 0.00263567 0.000592532 0.00103691 0.000741129 0.00126 0.000338943 0.000599357 0.00263567 0.00316305 0.00103691 0.00163896 0.00126 0.00164554 0.000599357 0.00085977 0.000838719 0.00126987 4.32789e-05 0.000303378 0.000592532 0.00103691 6.30847e-05 0.00027518 0.00126987 0.00202465 0.000303378 0.00065639 0.00103691 0.00163896 0.00027518 0.000562724 4.32789e-05 0.000303378 0 0 6.30847e-05 0.00027518 0 0 0.000303378 0.00065639 0 0 0.00027518 0.000562724 0 0 0.000592532 0.00103691 6.30847e-05 0.00027518 0.000338943 0.000599357 0.000169471 0.000299678 0.00103691 0.00163896 0.00027518 0.000562724 0.000599357 0.00085977 0.000299678 0.000429885 6.30847e-05 0.00027518 0 0 0.000169471 0.000299678 0 0 0.00027518 0.000562724 0 0 0.000299678 0.000429885 0 0 0.00581807 0.00525982 0.002249 0.00175334 0.00379496 0.0032763 0.00187629 0.0013499 0.00316305 0.00379496 0.00163896 0.00187629 0.00164554 0.00168215 0.00085977 0.000903115 0.00379496 0.0032763 0.00187629 0.0013499 0.00168215 0.00124594 0.000903115 0.000946459 0.00611646 0 0.00301159 0 0.00281049 0 0.00186095 0 0.00525982 0.00301159 0.00175334 0.00087667 0.0032763 0.00186095 0.0013499 0.000674949 0.00301159 0 0.00087667 0 0.00186095 0 0.000674949 0 0.00471783 0.00281049 0.0032763 0.00186095 0.00114331 0.000571657 0.00124594 0.000700113 0.00281049 0 0.00186095 0 0.000571657 0 0.000700113 0 0.0032763 0.00186095 0.0013499 0.000674949 0.00124594 0.000700113 0.000946459 0.000473229 0.00186095 0 0.000674949 0 0.000700113 0 0.000473229 0 0 0 0 0 0 0.000236615 0 0.000278843 0 0 0 0 0.000236615 0.000473229 0.000278843 0.000405225 0 0 0 0 0 0.000278843 0 0.000285829 0 0 0 0 0.000278843 0.000405225 0.000285829 0.000571657 0 0.000236615 0 0.000278843 0 0.000473229 0 0.000700113 0.000236615 0.000473229 0.000278843 0.000405225 0.000473229 0.000946459 0.000700113 0.00124594 0 0.000278843 0 0.000285829 0 0.000700113 0 0.000571657 0.000278843 0.000405225 0.000285829 0.000571657 0.000700113 0.00124594 0.000571657 0.00114331 0 0 0 0 0.000473229 0.000451557 0.000405225 0.000564748 0 0 0 0 0.000451557 0.000429885 0.000564748 0.000567476 0 0 0 0 0.000405225 0.000564748 0.000571657 0.000580631 0 0 0 0 0.000564748 0.000567476 0.000580631 0.000659947 0.000473229 0.000451557 0.000405225 0.000564748 0.000946459 0.000903115 0.00124594 0.00168215 0.000451557 0.000429885 0.000564748 0.000567476 0.000903115 0.00085977 0.00168215 0.00164554 0.000405225 0.000564748 0.000571657 0.000580631 0.00124594 0.00168215 0.00114331 0.00175834 0.000564748 0.000567476 0.000580631 0.000659947 0.00168215 0.00164554 0.00175834 0.00204916 0 0 0.000473229 0.000451557 0 0 0.000674949 0.000724333 0 0 0.000451557 0.000429885 0 0 0.000724333 0.000562724 0.000473229 0.000451557 0.000946459 0.000903115 0.000674949 0.000724333 0.0013499 0.00187629 0.000451557 0.000429885 0.000903115 0.00085977 0.000724333 0.000562724 0.00187629 0.00163896 0 0 0.000674949 0.000724333 0 0 0.00087667 0.000831849 0 0 0.000724333 0.000562724 0 0 0.000831849 0.00065639 0.000674949 0.000724333 0.0013499 0.00187629 0.00087667 0.000831849 0.00175334 0.002249 0.000724333 0.000562724 0.00187629 0.00163896 0.000831849 0.00065639 0.002249 0.00202465 0 0 0 0 0.000429885 0.000299678 0.000567476 0.000445491 0 0 0 0 0.000299678 0.000169471 0.000445491 0.000370564 0 0 0 0 0.000567476 0.000445491 0.000659947 0.000580631 0 0 0 0 0.000445491 0.000370564 0.000580631 0.000571657 0.000429885 0.000299678 0.000567476 0.000445491 0.00085977 0.000599357 0.00164554 0.00126 0.000299678 0.000169471 0.000445491 0.000370564 0.000599357 0.000338943 0.00126 0.000741129 0.000567476 0.000445491 0.000659947 0.000580631 0.00164554 0.00126 0.00204916 0.00175834 0.000445491 0.000370564 0.000580631 0.000571657 0.00126 0.000741129 0.00175834 0.00114331 0 0 0.000169471 8.47357e-05 0 0 6.30847e-05 2.55109e-05 0 0 8.47357e-05 0 0 0 2.55109e-05 0 0.000169471 8.47357e-05 0.000338943 0.000169471 6.30847e-05 2.55109e-05 0.000592532 0.000350976 8.47357e-05 0 0.000169471 0 2.55109e-05 0 0.000350976 0 0 0 6.30847e-05 2.55109e-05 0 0 4.32789e-05 3.24594e-05 0 0 2.55109e-05 0 0 0 3.24594e-05 0 6.30847e-05 2.55109e-05 0.000592532 0.000350976 4.32789e-05 3.24594e-05 0.000838719 0.000418248 2.55109e-05 0 0.000350976 0 3.24594e-05 0 0.000418248 0 0 0 0 0 0.000571657 0.000580631 0.000370564 0.000445491 0 0 0 0 0.000580631 0.000659947 0.000445491 0.000567476 0 0 0 0 0.000370564 0.000445491 0.000169471 0.000299678 0 0 0 0 0.000445491 0.000567476 0.000299678 0.000429885 0.000571657 0.000580631 0.000370564 0.000445491 0.00114331 0.00175834 0.000741129 0.00126 0.000580631 0.000659947 0.000445491 0.000567476 0.00175834 0.00204916 0.00126 0.00164554 0.000370564 0.000445491 0.000169471 0.000299678 0.000741129 0.00126 0.000338943 0.000599357 0.000445491 0.000567476 0.000299678 0.000429885 0.00126 0.00164554 0.000599357 0.00085977 0 0.000169471 0 8.47357e-05 0 0.000350976 0 2.55109e-05 0.000169471 0.000338943 8.47357e-05 0.000169471 0.000350976 0.000592532 2.55109e-05 6.30847e-05 0 8.47357e-05 0 0 0 2.55109e-05 0 0 8.47357e-05 0.000169471 0 0 2.55109e-05 6.30847e-05 0 0 0 0.000350976 0 2.55109e-05 0 0.000418248 0 3.24594e-05 0.000350976 0.000592532 2.55109e-05 6.30847e-05 0.000418248 0.000838719 3.24594e-05 4.32789e-05 0 2.55109e-05 0 0 0 3.24594e-05 0 0 2.55109e-05 6.30847e-05 0 0 3.24594e-05 4.32789e-05 0 0 0 0 0 0 0.000659947 0.000580631 0.000567476 0.000564748 0 0 0 0 0.000580631 0.000571657 0.000564748 0.000405225 0 0 0 0 0.000567476 0.000564748 0.000429885 0.000451557 0 0 0 0 0.000564748 0.000405225 0.000451557 0.000473229 0.000659947 0.000580631 0.000567476 0.000564748 0.00204916 0.00175834 0.00164554 0.00168215 0.000580631 0.000571657 0.000564748 0.000405225 0.00175834 0.00114331 0.00168215 0.00124594 0.000567476 0.000564748 0.000429885 0.000451557 0.00164554 0.00168215 0.00085977 0.000903115 0.000564748 0.000405225 0.000451557 0.000473229 0.00168215 0.00124594 0.000903115 0.000946459 0 0 0 0 0.000571657 0.000285829 0.000405225 0.000278843 0 0 0 0 0.000285829 0 0.000278843 0 0 0 0 0 0.000405225 0.000278843 0.000473229 0.000236615 0 0 0 0 0.000278843 0 0.000236615 0 0.000571657 0.000285829 0.000405225 0.000278843 0.00114331 0.000571657 0.00124594 0.000700113 0.000285829 0 0.000278843 0 0.000571657 0 0.000700113 0 0.000405225 0.000278843 0.000473229 0.000236615 0.00124594 0.000700113 0.000946459 0.000473229 0.000278843 0 0.000236615 0 0.000700113 0 0.000473229 0 0.00085977 0.000903115 0.000429885 0.000451557 0.00163896 0.00187629 0.000562724 0.000724333 0.000903115 0.000946459 0.000451557 0.000473229 0.00187629 0.0013499 0.000724333 0.000674949 0.000429885 0.000451557 0 0 0.000562724 0.000724333 0 0 0.000451557 0.000473229 0 0 0.000724333 0.000674949 0 0 0.00163896 0.00187629 0.000562724 0.000724333 0.00202465 0.002249 0.00065639 0.000831849 0.00187629 0.0013499 0.000724333 0.000674949 0.002249 0.00175334 0.000831849 0.00087667 0.000562724 0.000724333 0 0 0.00065639 0.000831849 0 0 0.000724333 0.000674949 0 0 0.000831849 0.00087667 0 0 0 0 0.00087667 0.000831849 0 0 0.000674949 0.000724333 0 0 0.000831849 0.00065639 0 0 0.000724333 0.000562724 0.00087667 0.000831849 0.00175334 0.002249 0.000674949 0.000724333 0.0013499 0.00187629 0.000831849 0.00065639 0.002249 0.00202465 0.000724333 0.000562724 0.00187629 0.00163896 0 0 0.000674949 0.000724333 0 0 0.000473229 0.000451557 0 0 0.000724333 0.000562724 0 0 0.000451557 0.000429885 0.000674949 0.000724333 0.0013499 0.00187629 0.000473229 0.000451557 0.000946459 0.000903115 0.000724333 0.000562724 0.00187629 0.00163896 0.000451557 0.000429885 0.000903115 0.00085977 0 0.000473229 0 0.000700113 0 0.000236615 0 0.000278843 0.000473229 0.000946459 0.000700113 0.00124594 0.000236615 0.000473229 0.000278843 0.000405225 0 0.000700113 0 0.000571657 0 0.000278843 0 0.000285829 0.000700113 0.00124594 0.000571657 0.00114331 0.000278843 0.000405225 0.000285829 0.000571657 0 0.000236615 0 0.000278843 0 0 0 0 0.000236615 0.000473229 0.000278843 0.000405225 0 0 0 0 0 0.000278843 0 0.000285829 0 0 0 0 0.000278843 0.000405225 0.000285829 0.000571657 0 0 0 0 0.000946459 0.000903115 0.00124594 0.00168215 0.000473229 0.000451557 0.000405225 0.000564748 0.000903115 0.00085977 0.00168215 0.00164554 0.000451557 0.000429885 0.000564748 0.000567476 0.00124594 0.00168215 0.00114331 0.00175834 0.000405225 0.000564748 0.000571657 0.000580631 0.00168215 0.00164554 0.00175834 0.00204916 0.000564748 0.000567476 0.000580631 0.000659947 0.000473229 0.000451557 0.000405225 0.000564748 0 0 0 0 0.000451557 0.000429885 0.000564748 0.000567476 0 0 0 0 0.000405225 0.000564748 0.000571657 0.000580631 0 0 0 0 0.000564748 0.000567476 0.000580631 0.000659947 0 0 0 0 0 0 4.32789e-05 3.24594e-05 0 0 6.30847e-05 2.55109e-05 0 0 3.24594e-05 0 0 0 2.55109e-05 0 4.32789e-05 3.24594e-05 0.000838719 0.000418248 6.30847e-05 2.55109e-05 0.000592532 0.000350976 3.24594e-05 0 0.000418248 0 2.55109e-05 0 0.000350976 0 0 0 6.30847e-05 2.55109e-05 0 0 0.000169471 8.47357e-05 0 0 2.55109e-05 0 0 0 8.47357e-05 0 6.30847e-05 2.55109e-05 0.000592532 0.000350976 0.000169471 8.47357e-05 0.000338943 0.000169471 2.55109e-05 0 0.000350976 0 8.47357e-05 0 0.000169471 0 0.00085977 0.000599357 0.00164554 0.00126 0.000429885 0.000299678 0.000567476 0.000445491 0.000599357 0.000338943 0.00126 0.000741129 0.000299678 0.000169471 0.000445491 0.000370564 0.00164554 0.00126 0.00204916 0.00175834 0.000567476 0.000445491 0.000659947 0.000580631 0.00126 0.000741129 0.00175834 0.00114331 0.000445491 0.000370564 0.000580631 0.000571657 0.000429885 0.000299678 0.000567476 0.000445491 0 0 0 0 0.000299678 0.000169471 0.000445491 0.000370564 0 0 0 0 0.000567476 0.000445491 0.000659947 0.000580631 0 0 0 0 0.000445491 0.000370564 0.000580631 0.000571657 0 0 0 0 0 0.000418248 0 3.24594e-05 0 0.000350976 0 2.55109e-05 0.000418248 0.000838719 3.24594e-05 4.32789e-05 0.000350976 0.000592532 2.55109e-05 6.30847e-05 0 3.24594e-05 0 0 0 2.55109e-05 0 0 3.24594e-05 4.32789e-05 0 0 2.55109e-05 6.30847e-05 0 0 0 0.000350976 0 2.55109e-05 0 0.000169471 0 8.47357e-05 0.000350976 0.000592532 2.55109e-05 6.30847e-05 0.000169471 0.000338943 8.47357e-05 0.000169471 0 2.55109e-05 0 0 0 8.47357e-05 0 0 2.55109e-05 6.30847e-05 0 0 8.47357e-05 0.000169471 0 0 0.00114331 0.00175834 0.000741129 0.00126 0.000571657 0.000580631 0.000370564 0.000445491 0.00175834 0.00204916 0.00126 0.00164554 0.000580631 0.000659947 0.000445491 0.000567476 0.000741129 0.00126 0.000338943 0.000599357 0.000370564 0.000445491 0.000169471 0.000299678 0.00126 0.00164554 0.000599357 0.00085977 0.000445491 0.000567476 0.000299678 0.000429885 0.000571657 0.000580631 0.000370564 0.000445491 0 0 0 0 0.000580631 0.000659947 0.000445491 0.000567476 0 0 0 0 0.000370564 0.000445491 0.000169471 0.000299678 0 0 0 0 0.000445491 0.000567476 0.000299678 0.000429885 0 0 0 0 0.00202465 0.002249 0.00065639 0.000831849 0.00163896 0.00187629 0.000562724 0.000724333 0.002249 0.00175334 0.000831849 0.00087667 0.00187629 0.0013499 0.000724333 0.000674949 0.00065639 0.000831849 0 0 0.000562724 0.000724333 0 0 0.000831849 0.00087667 0 0 0.000724333 0.000674949 0 0 0.00163896 0.00187629 0.000562724 0.000724333 0.00085977 0.000903115 0.000429885 0.000451557 0.00187629 0.0013499 0.000724333 0.000674949 0.000903115 0.000946459 0.000451557 0.000473229 0.000562724 0.000724333 0 0 0.000429885 0.000451557 0 0 0.000724333 0.000674949 0 0 0.000451557 0.000473229 0 0 0.00204916 0.00175834 0.00164554 0.00168215 0.000659947 0.000580631 0.000567476 0.000564748 0.00175834 0.00114331 0.00168215 0.00124594 0.000580631 0.000571657 0.000564748 0.000405225 0.00164554 0.00168215 0.00085977 0.000903115 0.000567476 0.000564748 0.000429885 0.000451557 0.00168215 0.00124594 0.000903115 0.000946459 0.000564748 0.000405225 0.000451557 0.000473229 0.000659947 0.000580631 0.000567476 0.000564748 0 0 0 0 0.000580631 0.000571657 0.000564748 0.000405225 0 0 0 0 0.000567476 0.000564748 0.000429885 0.000451557 0 0 0 0 0.000564748 0.000405225 0.000451557 0.000473229 0 0 0 0 0.00114331 0.000571657 0.00124594 0.000700113 0.000571657 0.000285829 0.000405225 0.000278843 0.000571657 0 0.000700113 0 0.000285829 0 0.000278843 0 0.00124594 0.000700113 0.000946459 0.000473229 0.000405225 0.000278843 0.000473229 0.000236615 0.000700113 0 0.000473229 0 0.000278843 0 0.000236615 0 0.000571657 0.000285829 0.000405225 0.000278843 0 0 0 0 0.000285829 0 0.000278843 0 0 0 0 0 0.000405225 0.000278843 0.000473229 0.000236615 0 0 0 0 0.000278843 0 0.000236615 0 0 0 0 0 0.00186095 0.00256862 0.00233572 0.00316639 0.00243627 0.00335216 0.00344987 0.00634704 0.00256862 0.0032763 0.00316639 0.00399706 0.00335216 0.00426806 0.00634704 0.00847249 0.00233572 0.00316639 0.00281049 0.00376416 0.00344987 0.00634704 0.00446348