# vtk DataFile Version 3.0
#This file was generated by the deal.II library on 2016/12/19 at 17:17:56
ASCII
DATASET UNSTRUCTURED_GRID

POINTS 19104 double
-1 -1 -1
-0.5 -1 -1
-1 -0.5 -1
-0.5 -0.5 -1
-1 -1 -0.5
-0.5 -1 -0.5
-1 -0.5 -0.5
-0.5 -0.5 -0.5
0.5 -1 -1
1 -1 -1
0.5 -0.5 -1
1 -0.5 -1
0.5 -1 -0.5
1 -1 -0.5
0.5 -0.5 -0.5
1 -0.5 -0.5
-1 0.5 -1
-0.5 0.5 -1
-1 1 -1
-0.5 1 -1
-1 0.5 -0.5
-0.5 0.5 -0.5
-1 1 -0.5
-0.5 1 -0.5
0.5 0.5 -1
1 0.5 -1
0.5 1 -1
1 1 -1
0.5 0.5 -0.5
1 0.5 -0.5
0.5 1 -0.5
1 1 -0.5
-1 -1 0.5
-0.5 -1 0.5
-1 -0.5 0.5
-0.5 -0.5 0.5
-1 -1 1
-0.5 -1 1
-1 -0.5 1
-0.5 -0.5 1
0.5 -1 0.5
1 -1 0.5
0.5 -0.5 0.5
1 -0.5 0.5
0.5 -1 1
1 -1 1
0.5 -0.5 1
1 -0.5 1
-1 0.5 0.5
-0.5 0.5 0.5
-1 1 0.5
-0.5 1 0.5
-1 0.5 1
-0.5 0.5 1
-1 1 1
-0.5 1 1
0.5 0.5 0.5
1 0.5 0.5
0.5 1 0.5
1 1 0.5
0.5 0.5 1
1 0.5 1
0.5 1 1
1 1 1
-1 -0.5 -0.5
-0.75 -0.5 -0.5
-1 -0.25 -0.5
-0.75 -0.25 -0.5
-1 -0.5 -0.25
-0.75 -0.5 -0.25
-1 -0.25 -0.25
-0.75 -0.25 -0.25
-0.75 -0.5 -0.5
-0.5 -0.5 -0.5
-0.75 -0.25 -0.5
-0.5 -0.25 -0.5
-0.75 -0.5 -0.25
-0.5 -0.5 -0.25
-0.75 -0.25 -0.25
-0.5 -0.25 -0.25
-0.5 -0.5 -0.5
-0.25 -0.5 -0.5
-0.5 -0.25 -0.5
-0.25 -0.25 -0.5
-0.5 -0.5 -0.25
-0.25 -0.5 -0.25
-0.5 -0.25 -0.25
-0.25 -0.25 -0.25
0 -1 -0.5
0.25 -1 -0.5
0 -0.75 -0.5
0.25 -0.75 -0.5
0 -1 -0.25
0.25 -1 -0.25
0 -0.75 -0.25
0.25 -0.75 -0.25
0.25 -1 -0.5
0.5 -1 -0.5
0.25 -0.75 -0.5
0.5 -0.75 -0.5
0.25 -1 -0.25
0.5 -1 -0.25
0.25 -0.75 -0.25
0.5 -0.75 -0.25
0 -0.75 -0.5
0.25 -0.75 -0.5
0 -0.5 -0.5
0.25 -0.5 -0.5
0 -0.75 -0.25
0.25 -0.75 -0.25
0 -0.5 -0.25
0.25 -0.5 -0.25
0.25 -0.75 -0.5
0.5 -0.75 -0.5
0.25 -0.5 -0.5
0.5 -0.5 -0.5
0.25 -0.75 -0.25
0.5 -0.75 -0.25
0.25 -0.5 -0.25
0.5 -0.5 -0.25
0 -1 -0.25
0.25 -1 -0.25
0 -0.75 -0.25
0.25 -0.75 -0.25
0 -1 0
0.25 -1 0
0 -0.75 3.46945e-18
0.25 -0.75 2.60209e-18
0.25 -1 -0.25
0.5 -1 -0.25
0.25 -0.75 -0.25
0.5 -0.75 -0.25
0.25 -1 0
0.5 -1 0
0.25 -0.75 2.60209e-18
0.5 -0.75 1.73472e-18
0 -0.75 -0.25
0.25 -0.75 -0.25
0 -0.5 -0.25
0.25 -0.5 -0.25
0 -0.75 3.46945e-18
0.25 -0.75 2.60209e-18
0 -0.5 6.93889e-18
0.25 -0.5 5.20417e-18
0.25 -0.75 -0.25
0.5 -0.75 -0.25
0.25 -0.5 -0.25
0.5 -0.5 -0.25
0.25 -0.75 2.60209e-18
0.5 -0.75 1.73472e-18
0.25 -0.5 5.20417e-18
0.5 -0.5 3.46945e-18
0.25 -0.5 -0.5
0.5 -0.5 -0.5
0.25 -0.25 -0.5
0.5 -0.25 -0.5
0.25 -0.5 -0.25
0.5 -0.5 -0.25
0.25 -0.25 -0.25
0.5 -0.25 -0.25
0.5 -0.5 -0.5
0.75 -0.5 -0.5
0.5 -0.25 -0.5
0.75 -0.25 -0.5
0.5 -0.5 -0.25
0.75 -0.5 -0.25
0.5 -0.25 -0.25
0.75 -0.25 -0.25
0.75 -0.5 -0.5
1 -0.5 -0.5
0.75 -0.25 -0.5
1 -0.25 -0.5
0.75 -0.5 -0.25
1 -0.5 -0.25
0.75 -0.25 -0.25
1 -0.25 -0.25
-1 0.25 -0.5
-0.75 0.25 -0.5
-1 0.5 -0.5
-0.75 0.5 -0.5
-1 0.25 -0.25
-0.75 0.25 -0.25
-1 0.5 -0.25
-0.75 0.5 -0.25
-0.75 0.25 -0.5
-0.5 0.25 -0.5
-0.75 0.5 -0.5
-0.5 0.5 -0.5
-0.75 0.25 -0.25
-0.5 0.25 -0.25
-0.75 0.5 -0.25
-0.5 0.5 -0.25
-0.5 0.25 -0.5
-0.25 0.25 -0.5
-0.5 0.5 -0.5
-0.25 0.5 -0.5
-0.5 0.25 -0.25
-0.25 0.25 -0.25
-0.5 0.5 -0.25
-0.25 0.5 -0.25
-0.5 0.5 -0.5
-0.25 0.5 -0.5
-0.5 0.75 -0.5
-0.25 0.75 -0.5
-0.5 0.5 -0.25
-0.25 0.5 -0.25
-0.5 0.75 -0.25
-0.25 0.75 -0.25
-0.25 0.5 -0.5
0 0.5 -0.5
-0.25 0.75 -0.5
0 0.75 -0.5
-0.25 0.5 -0.25
0 0.5 -0.25
-0.25 0.75 -0.25
0 0.75 -0.25
-0.5 0.75 -0.5
-0.25 0.75 -0.5
-0.5 1 -0.5
-0.25 1 -0.5
-0.5 0.75 -0.25
-0.25 0.75 -0.25
-0.5 1 -0.25
-0.25 1 -0.25
-0.25 0.75 -0.5
0 0.75 -0.5
-0.25 1 -0.5
0 1 -0.5
-0.25 0.75 -0.25
0 0.75 -0.25
-0.25 1 -0.25
0 1 -0.25
-0.5 0.5 -0.25
-0.25 0.5 -0.25
-0.5 0.75 -0.25
-0.25 0.75 -0.25
-0.5 0.5 3.46945e-18
-0.25 0.5 5.20417e-18
-0.5 0.75 1.73472e-18
-0.25 0.75 2.60209e-18
-0.25 0.5 -0.25
0 0.5 -0.25
-0.25 0.75 -0.25
0 0.75 -0.25
-0.25 0.5 5.20417e-18
0 0.5 6.93889e-18
-0.25 0.75 2.60209e-18
0 0.75 3.46945e-18
-0.5 0.75 -0.25
-0.25 0.75 -0.25
-0.5 1 -0.25
-0.25 1 -0.25
-0.5 0.75 1.73472e-18
-0.25 0.75 2.60209e-18
-0.5 1 0
-0.25 1 0
-0.25 0.75 -0.25
0 0.75 -0.25
-0.25 1 -0.25
0 1 -0.25
-0.25 0.75 2.60209e-18
0 0.75 3.46945e-18
-0.25 1 0
0 1 0
0.25 0.25 -0.5
0.5 0.25 -0.5
0.25 0.5 -0.5
0.5 0.5 -0.5
0.25 0.25 -0.25
0.5 0.25 -0.25
0.25 0.5 -0.25
0.5 0.5 -0.25
0.5 0.25 -0.5
0.75 0.25 -0.5
0.5 0.5 -0.5
0.75 0.5 -0.5
0.5 0.25 -0.25
0.75 0.25 -0.25
0.5 0.5 -0.25
0.75 0.5 -0.25
0.75 0.25 -0.5
1 0.25 -0.5
0.75 0.5 -0.5
1 0.5 -0.5
0.75 0.25 -0.25
1 0.25 -0.25
0.75 0.5 -0.25
1 0.5 -0.25
-1 -0.5 0.25
-0.75 -0.5 0.25
-1 -0.25 0.25
-0.75 -0.25 0.25
-1 -0.5 0.5
-0.75 -0.5 0.5
-1 -0.25 0.5
-0.75 -0.25 0.5
-0.75 -0.5 0.25
-0.5 -0.5 0.25
-0.75 -0.25 0.25
-0.5 -0.25 0.25
-0.75 -0.5 0.5
-0.5 -0.5 0.5
-0.75 -0.25 0.5
-0.5 -0.25 0.5
-0.5 -0.5 0.25
-0.25 -0.5 0.25
-0.5 -0.25 0.25
-0.25 -0.25 0.25
-0.5 -0.5 0.5
-0.25 -0.5 0.5
-0.5 -0.25 0.5
-0.25 -0.25 0.5
0 -1 0
0.25 -1 0
0 -0.75 3.46945e-18
0.25 -0.75 2.60209e-18
0 -1 0.25
0.25 -1 0.25
0 -0.75 0.25
0.25 -0.75 0.25
0.25 -1 0
0.5 -1 0
0.25 -0.75 2.60209e-18
0.5 -0.75 1.73472e-18
0.25 -1 0.25
0.5 -1 0.25
0.25 -0.75 0.25
0.5 -0.75 0.25
0 -0.75 3.46945e-18
0.25 -0.75 2.60209e-18
0 -0.5 6.93889e-18
0.25 -0.5 5.20417e-18
0 -0.75 0.25
0.25 -0.75 0.25
0 -0.5 0.25
0.25 -0.5 0.25
0.25 -0.75 2.60209e-18
0.5 -0.75 1.73472e-18
0.25 -0.5 5.20417e-18
0.5 -0.5 3.46945e-18
0.25 -0.75 0.25
0.5 -0.75 0.25
0.25 -0.5 0.25
0.5 -0.5 0.25
0 -1 0.25
0.25 -1 0.25
0 -0.75 0.25
0.25 -0.75 0.25
0 -1 0.5
0.25 -1 0.5
0 -0.75 0.5
0.25 -0.75 0.5
0.25 -1 0.25
0.5 -1 0.25
0.25 -0.75 0.25
0.5 -0.75 0.25
0.25 -1 0.5
0.5 -1 0.5
0.25 -0.75 0.5
0.5 -0.75 0.5
0 -0.75 0.25
0.25 -0.75 0.25
0 -0.5 0.25
0.25 -0.5 0.25
0 -0.75 0.5
0.25 -0.75 0.5
0 -0.5 0.5
0.25 -0.5 0.5
0.25 -0.75 0.25
0.5 -0.75 0.25
0.25 -0.5 0.25
0.5 -0.5 0.25
0.25 -0.75 0.5
0.5 -0.75 0.5
0.25 -0.5 0.5
0.5 -0.5 0.5
0.25 -0.5 0.25
0.5 -0.5 0.25
0.25 -0.25 0.25
0.5 -0.25 0.25
0.25 -0.5 0.5
0.5 -0.5 0.5
0.25 -0.25 0.5
0.5 -0.25 0.5
0.5 -0.5 0.25
0.75 -0.5 0.25
0.5 -0.25 0.25
0.75 -0.25 0.25
0.5 -0.5 0.5
0.75 -0.5 0.5
0.5 -0.25 0.5
0.75 -0.25 0.5
0.75 -0.5 0.25
1 -0.5 0.25
0.75 -0.25 0.25
1 -0.25 0.25
0.75 -0.5 0.5
1 -0.5 0.5
0.75 -0.25 0.5
1 -0.25 0.5
-1 0.25 0.25
-0.75 0.25 0.25
-1 0.5 0.25
-0.75 0.5 0.25
-1 0.25 0.5
-0.75 0.25 0.5
-1 0.5 0.5
-0.75 0.5 0.5
-0.75 0.25 0.25
-0.5 0.25 0.25
-0.75 0.5 0.25
-0.5 0.5 0.25
-0.75 0.25 0.5
-0.5 0.25 0.5
-0.75 0.5 0.5
-0.5 0.5 0.5
-0.5 0.25 0.25
-0.25 0.25 0.25
-0.5 0.5 0.25
-0.25 0.5 0.25
-0.5 0.25 0.5
-0.25 0.25 0.5
-0.5 0.5 0.5
-0.25 0.5 0.5
-0.5 0.5 3.46945e-18
-0.25 0.5 5.20417e-18
-0.5 0.75 1.73472e-18
-0.25 0.75 2.60209e-18
-0.5 0.5 0.25
-0.25 0.5 0.25
-0.5 0.75 0.25
-0.25 0.75 0.25
-0.25 0.5 5.20417e-18
0 0.5 6.93889e-18
-0.25 0.75 2.60209e-18
0 0.75 3.46945e-18
-0.25 0.5 0.25
0 0.5 0.25
-0.25 0.75 0.25
0 0.75 0.25
-0.5 0.75 1.73472e-18
-0.25 0.75 2.60209e-18
-0.5 1 0
-0.25 1 0
-0.5 0.75 0.25
-0.25 0.75 0.25
-0.5 1 0.25
-0.25 1 0.25
-0.25 0.75 2.60209e-18
0 0.75 3.46945e-18
-0.25 1 0
0 1 0
-0.25 0.75 0.25
0 0.75 0.25
-0.25 1 0.25
0 1 0.25
-0.5 0.5 0.25
-0.25 0.5 0.25
-0.5 0.75 0.25
-0.25 0.75 0.25
-0.5 0.5 0.5
-0.25 0.5 0.5
-0.5 0.75 0.5
-0.25 0.75 0.5
-0.25 0.5 0.25
0 0.5 0.25
-0.25 0.75 0.25
0 0.75 0.25
-0.25 0.5 0.5
0 0.5 0.5
-0.25 0.75 0.5
0 0.75 0.5
-0.5 0.75 0.25
-0.25 0.75 0.25
-0.5 1 0.25
-0.25 1 0.25
-0.5 0.75 0.5
-0.25 0.75 0.5
-0.5 1 0.5
-0.25 1 0.5
-0.25 0.75 0.25
0 0.75 0.25
-0.25 1 0.25
0 1 0.25
-0.25 0.75 0.5
0 0.75 0.5
-0.25 1 0.5
0 1 0.5
0.25 0.25 0.25
0.5 0.25 0.25
0.25 0.5 0.25
0.5 0.5 0.25
0.25 0.25 0.5
0.5 0.25 0.5
0.25 0.5 0.5
0.5 0.5 0.5
0.5 0.25 0.25
0.75 0.25 0.25
0.5 0.5 0.25
0.75 0.5 0.25
0.5 0.25 0.5
0.75 0.25 0.5
0.5 0.5 0.5
0.75 0.5 0.5
0.75 0.25 0.25
1 0.25 0.25
0.75 0.5 0.25
1 0.5 0.25
0.75 0.25 0.5
1 0.25 0.5
0.75 0.5 0.5
1 0.5 0.5
-1 -0.5 -1
-0.75 -0.5 -1
-1 -0.25 -1
-0.75 -0.25 -1
-1 -0.5 -0.75
-0.75 -0.5 -0.75
-1 -0.25 -0.75
-0.75 -0.25 -0.75
-0.75 -0.5 -1
-0.5 -0.5 -1
-0.75 -0.25 -1
-0.5 -0.25 -1
-0.75 -0.5 -0.75
-0.5 -0.5 -0.75
-0.75 -0.25 -0.75
-0.5 -0.25 -0.75
-1 -0.25 -1
-0.75 -0.25 -1
-1 0 -1
-0.75 0 -1
-1 -0.25 -0.75
-0.75 -0.25 -0.75
-1 0 -0.75
-0.75 0 -0.75
-0.75 -0.25 -1
-0.5 -0.25 -1
-0.75 0 -1
-0.5 0 -1
-0.75 -0.25 -0.75
-0.5 -0.25 -0.75
-0.75 0 -0.75
-0.5 0 -0.75
-1 -0.5 -0.75
-0.75 -0.5 -0.75
-1 -0.25 -0.75
-0.75 -0.25 -0.75
-1 -0.5 -0.5
-0.75 -0.5 -0.5
-1 -0.25 -0.5
-0.75 -0.25 -0.5
-0.75 -0.5 -0.75
-0.5 -0.5 -0.75
-0.75 -0.25 -0.75
-0.5 -0.25 -0.75
-0.75 -0.5 -0.5
-0.5 -0.5 -0.5
-0.75 -0.25 -0.5
-0.5 -0.25 -0.5
-1 -0.25 -0.75
-0.75 -0.25 -0.75
-1 0 -0.75
-0.75 0 -0.75
-1 -0.25 -0.5
-0.75 -0.25 -0.5
-1 0 -0.5
-0.75 0 -0.5
-0.75 -0.25 -0.75
-0.5 -0.25 -0.75
-0.75 0 -0.75
-0.5 0 -0.75
-0.75 -0.25 -0.5
-0.5 -0.25 -0.5
-0.75 0 -0.5
-0.5 0 -0.5
-0.5 -0.5 -1
-0.25 -0.5 -1
-0.5 -0.25 -1
-0.25 -0.25 -1
-0.5 -0.5 -0.75
-0.25 -0.5 -0.75
-0.5 -0.25 -0.75
-0.25 -0.25 -0.75
-0.25 -0.5 -1
0 -0.5 -1
-0.25 -0.25 -1
0 -0.25 -1
-0.25 -0.5 -0.75
0 -0.5 -0.75
-0.25 -0.25 -0.75
0 -0.25 -0.75
-0.5 -0.25 -1
-0.25 -0.25 -1
-0.5 0 -1
-0.25 0 -1
-0.5 -0.25 -0.75
-0.25 -0.25 -0.75
-0.5 0 -0.75
-0.25 0 -0.75
-0.25 -0.25 -1
0 -0.25 -1
-0.25 0 -1
0 0 -1
-0.25 -0.25 -0.75
0 -0.25 -0.75
-0.25 0 -0.75
0 0 -0.75
-0.5 -0.5 -0.75
-0.25 -0.5 -0.75
-0.5 -0.25 -0.75
-0.25 -0.25 -0.75
-0.5 -0.5 -0.5
-0.25 -0.5 -0.5
-0.5 -0.25 -0.5
-0.25 -0.25 -0.5
-0.25 -0.5 -0.75
0 -0.5 -0.75
-0.25 -0.25 -0.75
0 -0.25 -0.75
-0.25 -0.5 -0.5
0 -0.5 -0.5
-0.25 -0.25 -0.5
0 -0.25 -0.5
-0.5 -0.25 -0.75
-0.25 -0.25 -0.75
-0.5 0 -0.75
-0.25 0 -0.75
-0.5 -0.25 -0.5
-0.25 -0.25 -0.5
-0.5 0 -0.5
-0.25 0 -0.5
-0.25 -0.25 -0.75
0 -0.25 -0.75
-0.25 0 -0.75
0 0 -0.75
-0.25 -0.25 -0.5
0 -0.25 -0.5
-0.25 0 -0.5
0 0 -0.5
-0.5 -1 -0.5
-0.25 -1 -0.5
-0.5 -0.75 -0.5
-0.25 -0.75 -0.5
-0.5 -1 -0.25
-0.25 -1 -0.25
-0.5 -0.75 -0.25
-0.25 -0.75 -0.25
-0.25 -1 -0.5
0 -1 -0.5
-0.25 -0.75 -0.5
0 -0.75 -0.5
-0.25 -1 -0.25
0 -1 -0.25
-0.25 -0.75 -0.25
0 -0.75 -0.25
-0.5 -0.75 -0.5
-0.25 -0.75 -0.5
-0.5 -0.5 -0.5
-0.25 -0.5 -0.5
-0.5 -0.75 -0.25
-0.25 -0.75 -0.25
-0.5 -0.5 -0.25
-0.25 -0.5 -0.25
-0.25 -0.75 -0.5
0 -0.75 -0.5
-0.25 -0.5 -0.5
0 -0.5 -0.5
-0.25 -0.75 -0.25
0 -0.75 -0.25
-0.25 -0.5 -0.25
0 -0.5 -0.25
-0.5 -1 -0.25
-0.25 -1 -0.25
-0.5 -0.75 -0.25
-0.25 -0.75 -0.25
-0.5 -1 0
-0.25 -1 0
-0.5 -0.75 1.73472e-18
[...]
POINT_DATA 19104
SCALARS x_displacement double 1
LOOKUP_TABLE default
0 0 0 0 0 0 0 0.000833435 0 0 0 0 0 0 0.000268008 0 0 0 0 0 0 0.000268008 0 0 0 0 0 0 0.000833435 0 0 0 0 0 0 0.000833435 0 0 0 0 0 0 0.000268008 0 0 0 0 0 0 0.000268008 0 0 0 0 0 0 0.000833435 0 0 0 0 0 0 0 0 0.000416718 0 0.00069621 0 0.000808452 0 0.0017516 0.000416718 0.000833435 0.00069621 0.00124666 0.000808452 0.00146726 0.0017516 0.00312197 0.000833435 0.00102229 0.00124666 0.00164034 0.00146726 0.00186398 0.00312197 0.00370425 0 0 0.000343406 0.000172904 0 0 0.000562147 0.000279536 0 0 0.000172904 0.000134004 0 0 0.000279536 5.25532e-05 0.000343406 0.000172904 0.000909822 0.000601115 0.000562147 0.000279536 0.00163251 0.00101822 0.000172904 0.000134004 0.000601115 0.000268008 0.000279536 5.25532e-05 0.00101822 0.000605873 0 0 0.000562147 0.000279536 0 0 0.000667776 0.000302597 0 0 0.000279536 5.25532e-05 0 0 0.000302597 5.29709e-05 0.000562147 0.000279536 0.00163251 0.00101822 0.000667776 0.000302597 0.00199921 0.00126863 0.000279536 5.25532e-05 0.00101822 0.000605873 0.000302597 5.29709e-05 0.00126863 0.000831857 0.000601115 0.000268008 0.00124195 0.000826276 0.00101822 0.000605873 0.00258699 0.00228755 0.000268008 0.000134004 0.000826276 0.000456717 0.000605873 0.000344619 0.00228755 0.00139527 0.000134004 0 0.000456717 0 0.000344619 0 0.00139527 0 0 0.000456717 0 0.000134004 0 0.00139527 0 0.000344619 0.000456717 0.000826276 0.000134004 0.000268008 0.00139527 0.00228755 0.000344619 0.000605873 0.000826276 0.00124195 0.000268008 0.000601115 0.00228755 0.00258699 0.000605873 0.00101822 0.000268008 0.000601115 0.000134004 0.000172904 0.000605873 0.00101822 5.25532e-05 0.000279536 0.000601115 0.000909822 0.000172904 0.000343406 0.00101822 0.00163251 0.000279536 0.000562147 0.000134004 0.000172904 0 0 5.25532e-05 0.000279536 0 0 0.000172904 0.000343406 0 0 0.000279536 0.000562147 0 0 0.000605873 0.00101822 5.25532e-05 0.000279536 0.000831857 0.00126863 5.29709e-05 0.000302597 0.00101822 0.00163251 0.000279536 0.000562147 0.00126863 0.00199921 0.000302597 0.000667776 5.25532e-05 0.000279536 0 0 5.29709e-05 0.000302597 0 0 0.000279536 0.000562147 0 0 0.000302597 0.000667776 0 0 0.00164034 0.00124666 0.00102229 0.000833435 0.00370425 0.00312197 0.00186398 0.00146726 0.00124666 0.00069621 0.000833435 0.000416718 0.00312197 0.0017516 0.00146726 0.000808452 0.00069621 0 0.000416718 0 0.0017516 0 0.000808452 0 0 0.000808452 0 0.0017516 0 0.000416718 0 0.00069621 0.000808452 0.00146726 0.0017516 0.00312197 0.000416718 0.000833435 0.00069621 0.00124666 0.00146726 0.00186398 0.00312197 0.00370425 0.000833435 0.00102229 0.00124666 0.00164034 0 0 0.000667776 0.000302597 0 0 0.000562147 0.000279536 0 0 0.000302597 5.29709e-05 0 0 0.000279536 5.25532e-05 0.000667776 0.000302597 0.00199921 0.00126863 0.000562147 0.000279536 0.00163251 0.00101822 0.000302597 5.29709e-05 0.00126863 0.000831857 0.000279536 5.25532e-05 0.00101822 0.000605873 0 0 0.000562147 0.000279536 0 0 0.000343406 0.000172904 0 0 0.000279536 5.25532e-05 0 0 0.000172904 0.000134004 0.000562147 0.000279536 0.00163251 0.00101822 0.000343406 0.000172904 0.000909822 0.000601115 0.000279536 5.25532e-05 0.00101822 0.000605873 0.000172904 0.000134004 0.000601115 0.000268008 0.00101822 0.000605873 0.00258699 0.00228755 0.000601115 0.000268008 0.00124195 0.000826276 0.000605873 0.000344619 0.00228755 0.00139527 0.000268008 0.000134004 0.000826276 0.000456717 0.000344619 0 0.00139527 0 0.000134004 0 0.000456717 0 0 0.00139527 0 0.000344619 0 0.000456717 0 0.000134004 0.00139527 0.00228755 0.000344619 0.000605873 0.000456717 0.000826276 0.000134004 0.000268008 0.00228755 0.00258699 0.000605873 0.00101822 0.000826276 0.00124195 0.000268008 0.000601115 0.000831857 0.00126863 5.29709e-05 0.000302597 0.000605873 0.00101822 5.25532e-05 0.000279536 0.00126863 0.00199921 0.000302597 0.000667776 0.00101822 0.00163251 0.000279536 0.000562147 5.29709e-05 0.000302597 0 0 5.25532e-05 0.000279536 0 0 0.000302597 0.000667776 0 0 0.000279536 0.000562147 0 0 0.000605873 0.00101822 5.25532e-05 0.000279536 0.000268008 0.000601115 0.000134004 0.000172904 0.00101822 0.00163251 0.000279536 0.000562147 0.000601115 0.000909822 0.000172904 0.000343406 5.25532e-05 0.000279536 0 0 0.000134004 0.000172904 0 0 0.000279536 0.000562147 0 0 0.000172904 0.000343406 0 0 0.00370425 0.00312197 0.00186398 0.00146726 0.00164034 0.00124666 0.00102229 0.000833435 0.00312197 0.0017516 0.00146726 0.000808452 0.00124666 0.00069621 0.000833435 0.000416718 0.0017516 0 0.000808452 0 0.00069621 0 0.000416718 0 0 0 0 0 0 0.000208359 0 0.000271337 0 0 0 0 0.000208359 0.000416718 0.000271337 0.000423405 0 0 0 0 0 0.000271337 0 0.000230513 0 0 0 0 0.000271337 0.000423405 0.000230513 0.000383493 0 0.000208359 0 0.000271337 0 0.000416718 0 0.00069621 0.000208359 0.000416718 0.000271337 0.000423405 0.000416718 0.000833435 0.00069621 0.00124666 0 0.000271337 0 0.000230513 0 0.00069621 0 0.00077306 0.000271337 0.000423405 0.000230513 0.000383493 0.00069621 0.00124666 0.00077306 0.00135942 0 0 0 0 0.000416718 0.00039695 0.000423405 0.000567484 0 0 0 0 0.00039695 0.000343381 0.000567484 0.000562075 0 0 0 0 0.000423405 0.000567484 0.000383493 0.000564776 0 0 0 0 0.000567484 0.000562075 0.000564776 0.000667495 0.000416718 0.00039695 0.000423405 0.000567484 0.000833435 0.00102229 0.00124666 0.00164034 0.00039695 0.000343381 0.000567484 0.000562075 0.00102229 0.000909822 0.00164034 0.00163236 0.000423405 0.000567484 0.000383493 0.000564776 0.00124666 0.00164034 0.00135942 0.00182725 0.000567484 0.000562075 0.000564776 0.000667495 0.00164034 0.00163236 0.00182725 0.00199938 0 0 0.000416718 0.000436661 0 0 0.000610345 0.000710503 0 0 0.000436661 0.000343406 0 0 0.000710503 0.000562147 0.000416718 0.000436661 0.000833435 0.00102229 0.000610345 0.000710503 0.00146726 0.00186398 0.000436661 0.000343406 0.00102229 0.000909822 0.000710503 0.000562147 0.00186398 0.00163251 0 0 0.000610345 0.000710503 0 0 0.000714289 0.000827218 0 0 0.000710503 0.000562147 0 0 0.000827218 0.000667776 0.000610345 0.000710503 0.00146726 0.00186398 0.000714289 0.000827218 0.00189045 0.00238806 0.000710503 0.000562147 0.00186398 0.00163251 0.000827218 0.000667776 0.00238806 0.00199921 0 0 0 0 0.000343381 0.000212581 0.000562075 0.000422241 0 0 0 0 0.000212581 0.000134004 0.000422241 0.000239129 0 0 0 0 0.000562075 0.000422241 0.000667495 0.000564776 0 0 0 0 0.000422241 0.000239129 0.000564776 0.000383493 0.000343381 0.000212581 0.000562075 0.000422241 0.000909822 0.000601115 0.00163236 0.00124195 0.000212581 0.000134004 0.000422241 0.000239129 0.000601115 0.000268008 0.00124195 0.000826276 0.000562075 0.000422241 0.000667495 0.000564776 0.00163236 0.00124195 0.00199938 0.00182725 0.000422241 0.000239129 0.000564776 0.000383493 0.00124195 0.000826276 0.00182725 0.00135942 0 0 0.000134004 6.70019e-05 0 0 5.25532e-05 2.26559e-05 0 0 6.70019e-05 0 0 0 2.26559e-05 0 0.000134004 6.70019e-05 0.000268008 0.000134004 5.25532e-05 2.26559e-05 0.000605873 0.000344619 6.70019e-05 0 0.000134004 0 2.26559e-05 0 0.000344619 0 0 0 5.25532e-05 2.26559e-05 0 0 5.29709e-05 2.3081e-05 0 0 2.26559e-05 0 0 0 2.3081e-05 0 5.25532e-05 2.26559e-05 0.000605873 0.000344619 5.29709e-05 2.3081e-05 0.000831857 0.000511506 2.26559e-05 0 0.000344619 0 2.3081e-05 0 0.000511506 0 0 0 0 0 0.000383493 0.000564776 0.000239129 0.000422241 0 0 0 0 0.000564776 0.000667495 0.000422241 0.000562075 0 0 0 0 0.000239129 0.000422241 0.000134004 0.000212581 0 0 0 0 0.000422241 0.000562075 0.000212581 0.000343381 0.000383493 0.000564776 0.000239129 0.000422241 0.00135942 0.00182725 0.000826276 0.00124195 0.000564776 0.000667495 0.000422241 0.000562075 0.00182725 0.00199938 0.00124195 0.00163236 0.000239129 0.000422241 0.000134004 0.000212581 0.000826276 0.00124195 0.000268008 0.000601115 0.000422241 0.000562075 0.000212581 0.000343381 0.00124195 0.00163236 0.000601115 0.000909822 0 0.000134004 0 6.70019e-05 0 0.000344619 0 2.26559e-05 0.000134004 0.000268008 6.70019e-05 0.000134004 0.000344619 0.000605873 2.26559e-05 5.25532e-05 0 6.70019e-05 0 0 0 2.26559e-05 0 0 6.70019e-05 0.000134004 0 0 2.26559e-05 5.25532e-05 0 0 0 0.000344619 0 2.26559e-05 0 0.000511506 0 2.3081e-05 0.000344619 0.000605873 2.26559e-05 5.25532e-05 0.000511506 0.000831857 2.3081e-05 5.29709e-05 0 2.26559e-05 0 0 0 2.3081e-05 0 0 2.26559e-05 5.25532e-05 0 0 2.3081e-05 5.29709e-05 0 0 0 0 0 0 0.000667495 0.000564776 0.000562075 0.000567484 0 0 0 0 0.000564776 0.000383493 0.000567484 0.000423405 0 0 0 0 0.000562075 0.000567484 0.000343381 0.00039695 0 0 0 0 0.000567484 0.000423405 0.00039695 0.000416718 0.000667495 0.000564776 0.000562075 0.000567484 0.00199938 0.00182725 0.00163236 0.00164034 0.000564776 0.000383493 0.000567484 0.000423405 0.00182725 0.00135942 0.00164034 0.00124666 0.000562075 0.000567484 0.000343381 0.00039695 0.00163236 0.00164034 0.000909822 0.00102229 0.000567484 0.000423405 0.00039695 0.000416718 0.00164034 0.00124666 0.00102229 0.000833435 0 0 0 0 0.000383493 0.000230513 0.000423405 0.000271337 0 0 0 0 0.000230513 0 0.000271337 0 0 0 0 0 0.000423405 0.000271337 0.000416718 0.000208359 0 0 0 0 0.000271337 0 0.000208359 0 0.000383493 0.000230513 0.000423405 0.000271337 0.00135942 0.00077306 0.00124666 0.00069621 0.000230513 0 0.000271337 0 0.00077306 0 0.00069621 0 0.000423405 0.000271337 0.000416718 0.000208359 0.00124666 0.00069621 0.000833435 0.000416718 0.000271337 0 0.000208359 0 0.00069621 0 0.000416718 0 0.000909822 0.00102229 0.000343406 0.000436661 0.00163251 0.00186398 0.000562147 0.000710503 0.00102229 0.000833435 0.000436661 0.000416718 0.00186398 0.00146726 0.000710503 0.000610345 0.000343406 0.000436661 0 0 0.000562147 0.000710503 0 0 0.000436661 0.000416718 0 0 0.000710503 0.000610345 0 0 0.00163251 0.00186398 0.000562147 0.000710503 0.00199921 0.00238806 0.000667776 0.000827218 0.00186398 0.00146726 0.000710503 0.000610345 0.00238806 0.00189045 0.000827218 0.000714289 0.000562147 0.000710503 0 0 0.000667776 0.000827218 0 0 0.000710503 0.000610345 0 0 0.000827218 0.000714289 0 0 0 0 0.000714289 0.000827218 0 0 0.000610345 0.000710503 0 0 0.000827218 0.000667776 0 0 0.000710503 0.000562147 0.000714289 0.000827218 0.00189045 0.00238806 0.000610345 0.000710503 0.00146726 0.00186398 0.000827218 0.000667776 0.00238806 0.00199921 0.000710503 0.000562147 0.00186398 0.00163251 0 0 0.000610345 0.000710503 0 0 0.000416718 0.000436661 0 0 0.000710503 0.000562147 0 0 0.000436661 0.000343406 0.000610345 0.000710503 0.00146726 0.00186398 0.000416718 0.000436661 0.000833435 0.00102229 0.000710503 0.000562147 0.00186398 0.00163251 0.000436661 0.000343406 0.00102229 0.000909822 0 0.000416718 0 0.00069621 0 0.000208359 0 0.000271337 0.000416718 0.000833435 0.00069621 0.00124666 0.000208359 0.000416718 0.000271337 0.000423405 0 0.00069621 0 0.00077306 0 0.000271337 0 0.000230513 0.00069621 0.00124666 0.00077306 0.00135942 0.000271337 0.000423405 0.000230513 0.000383493 0 0.000208359 0 0.000271337 0 0 0 0 0.000208359 0.000416718 0.000271337 0.000423405 0 0 0 0 0 0.000271337 0 0.000230513 0 0 0 0 0.000271337 0.000423405 0.000230513 0.000383493 0 0 0 0 0.000833435 0.00102229 0.00124666 0.00164034 0.000416718 0.00039695 0.000423405 0.000567484 0.00102229 0.000909822 0.00164034 0.00163236 0.00039695 0.000343381 0.000567484 0.000562075 0.00124666 0.00164034 0.00135942 0.00182725 0.000423405 0.000567484 0.000383493 0.000564776 0.00164034 0.00163236 0.00182725 0.00199938 0.000567484 0.000562075 0.000564776 0.000667495 0.000416718 0.00039695 0.000423405 0.000567484 0 0 0 0 0.00039695 0.000343381 0.000567484 0.000562075 0 0 0 0 0.000423405 0.000567484 0.000383493 0.000564776 0 0 0 0 0.000567484 0.000562075 0.000564776 0.000667495 0 0 0 0 0 0 5.29709e-05 2.3081e-05 0 0 5.25532e-05 2.26559e-05 0 0 2.3081e-05 0 0 0 2.26559e-05 0 5.29709e-05 2.3081e-05 0.000831857 0.000511506 5.25532e-05 2.26559e-05 0.000605873 0.000344619 2.3081e-05 0 0.000511506 0 2.26559e-05 0 0.000344619 0 0 0 5.25532e-05 2.26559e-05 0 0 0.000134004 6.70019e-05 0 0 2.26559e-05 0 0 0 6.70019e-05 0 5.25532e-05 2.26559e-05 0.000605873 0.000344619 0.000134004 6.70019e-05 0.000268008 0.000134004 2.26559e-05 0 0.000344619 0 6.70019e-05 0 0.000134004 0 0.000909822 0.000601115 0.00163236 0.00124195 0.000343381 0.000212581 0.000562075 0.000422241 0.000601115 0.000268008 0.00124195 0.000826276 0.000212581 0.000134004 0.000422241 0.000239129 0.00163236 0.00124195 0.00199938 0.00182725 0.000562075 0.000422241 0.000667495 0.000564776 0.00124195 0.000826276 0.00182725 0.00135942 0.000422241 0.000239129 0.000564776 0.000383493 0.000343381 0.000212581 0.000562075 0.000422241 0 0 0 0 0.000212581 0.000134004 0.000422241 0.000239129 0 0 0 0 0.000562075 0.000422241 0.000667495 0.000564776 0 0 0 0 0.000422241 0.000239129 0.000564776 0.000383493 0 0 0 0 0 0.000511506 0 2.3081e-05 0 0.000344619 0 2.26559e-05 0.000511506 0.000831857 2.3081e-05 5.29709e-05 0.000344619 0.000605873 2.26559e-05 5.25532e-05 0 2.3081e-05 0 0 0 2.26559e-05 0 0 2.3081e-05 5.29709e-05 0 0 2.26559e-05 5.25532e-05 0 0 0 0.000344619 0 2.26559e-05 0 0.000134004 0 6.70019e-05 0.000344619 0.000605873 2.26559e-05 5.25532e-05 0.000134004 0.000268008 6.70019e-05 0.000134004 0 2.26559e-05 0 0 0 6.70019e-05 0 0 2.26559e-05 5.25532e-05 0 0 6.70019e-05 0.000134004 0 0 0.00135942 0.00182725 0.000826276 0.00124195 0.000383493 0.000564776 0.000239129 0.000422241 0.00182725 0.00199938 0.00124195 0.00163236 0.000564776 0.000667495 0.000422241 0.000562075 0.000826276 0.00124195 0.000268008 0.000601115 0.000239129 0.000422241 0.000134004 0.000212581 0.00124195 0.00163236 0.000601115 0.000909822 0.000422241 0.000562075 0.000212581 0.000343381 0.000383493 0.000564776 0.000239129 0.000422241 0 0 0 0 0.000564776 0.000667495 0.000422241 0.000562075 0 0 0 0 0.000239129 0.000422241 0.000134004 0.000212581 0 0 0 0 0.000422241 0.000562075 0.000212581 0.000343381 0 0 0 0 0.00199921 0.00238806 0.000667776 0.000827218 0.00163251 0.00186398 0.000562147 0.000710503 0.00238806 0.00189045 0.000827218 0.000714289 0.00186398 0.00146726 0.000710503 0.000610345 0.000667776 0.000827218 0 0 0.000562147 0.000710503 0 0 0.000827218 0.000714289 0 0 0.000710503 0.000610345 0 0 0.00163251 0.00186398 0.000562147 0.000710503 0.000909822 0.00102229 0.000343406 0.000436661 0.00186398 0.00146726 0.000710503 0.000610345 0.00102229 0.000833435 0.000436661 0.000416718 0.000562147 0.000710503 0 0 0.000343406 0.000436661 0 0 0.000710503 0.000610345 0 0 0.000436661 0.000416718 0 0 0.00199938 0.00182725 0.00163236 0.00164034 0.000667495 0.000564776 0.000562075 0.000567484 0.00182725 0.00135942 0.00164034 0.00124666 0.000564776 0.000383493 0.000567484 0.000423405 0.00163236 0.00164034 0.000909822 0.00102229 0.000562075 0.000567484 0.000343381 0.00039695 0.00164034 0.00124666 0.00102229 0.000833435 0.000567484 0.000423405 0.00039695 0.000416718 0.000667495 0.000564776 0.000562075 0.000567484 0 0 0 0 0.000564776 0.000383493 0.000567484 0.000423405 0 0 0 0 0.000562075 0.000567484 0.000343381 0.00039695 0 0 0 0 0.000567484 0.000423405 0.00039695 0.000416718 0 0 0 0 0.00135942 0.00077306 0.00124666 0.00069621 0.000383493 0.000230513 0.000423405 0.000271337 0.00077306 0 0.00069621 0 0.000230513 0 0.000271337 0 0.00124666 0.00069621 0.000833435 0.000416718 0.000423405 0.000271337 0.000416718 0.000208359 0.00069621 0 0.000416718 0 0.000271337 0 0.000208359 0 0.000383493 0.000230513 0.000423405 0.000271337 0 0 0 0 0.000230513 0 0.000271337 0 0 0 0 0 0.000423405 0.000271337 0.000416718 0.000208359 0 0 0 0 0.000271337 0 0.000208359 0 0 0 0 0 0 0 0 0 0 0 0.000208359 0.000192214 0 0 0 0 0 0 0.000192214 0.000131645 0 0 0 0 0.000208359 0.000192214 0.000416718 0.00039695 0 0 0 0 0.000192214 0.000131645 0.00039695 0.000343381 0 0 0.000208359 0.000192214 0 0 0.000416718 0.000436661 0 0 0.000192214 0.000131645 0 0 0.000436661 0.000343406 0.000208359 0.000192214 0.000416718 0.00039695 0.000416718 0.000436661 0.000833435 0.00102229 0.000192214 0.000131645 0.00039695 0.000343381 0.000436661 0.000343406 0.00102229 0.000909822 0 0 0 0.000208359 0 0 0 0.000395361 0 0 0.000208359 0.000416718 0 0 0.000395361 0.000610345 0 0.000208359 0 0.000416718 0 0.000395361 0 0.000808452 0.000208359 0.000416718 0.000416718 0.000833435 0.000395361 0.000610345 0.000808452 0.00146726 0 0 0 0.000395361 0 0 0 0.000437999 0 0 0.000395361 0.000610345 0 0 0.000437999 0.000714289 0 0.000395361 0 0.000808452 0 0.000437999 0 0.00103808 0.000395361 0.000610345 0.000808452 0.00146726 0.000437999 0.000714289 0.00103808 0.00189045 0 0 0 0 0 0 0.000131645 5.75208e-05 0 0 0 0 0 0 5.75208e-05 6.70019e-05 0 0 0 0 0.000131645 5.75208e-05 0.000343381 0.000212581 0 0 0 0 5.75208e-05 6.70019e-05 0.000212581 0.000134004 0 0 0.000131645 5.75208e-05 0 0 0.000343406 0.000172904 0 0 5.75208e-05 6.70019e-05 0 0 0.000172904 0.000134004 0.000131645 5.75208e-05 0.000343381 0.000212581 0.000343406 0.000172904 0.000909822 0.000601115 5.75208e-05 6.70019e-05 0.000212581 0.000134004 0.000172904 0.000134004 0.000601115 0.000268008 0 0 0 0 0.000134004 6.70019e-05 0.000239129 0.000146416 0 0 0 0 6.70019e-05 0 0.000146416 0 0 0 0 0 0.000239129 0.000146416 0.000383493 0.000230513 0 0 0 0 0.000146416 0 0.000230513 0 0.000134004 6.70019e-05 0.000239129 0.000146416 0.000268008 0.000134004 0.000826276 0.000456717 6.70019e-05 0 0.000146416 0 0.000134004 0 0.000456717 0 0.000239129 0.000146416 0.000383493 0.000230513 0.000826276 0.000456717 0.00135942 0.00077306 0.000146416 0 0.000230513 0 0.000456717 0 0.00077306 0 0 0 0 0 0 0.000230513 0 0.000146416 0 0 0 0 0.000230513 0.000383493 0.000146416 0.000239129 0 0 0 0 0 0.000146416 0 6.70019e-05 0 0 0 0 0.000146416 0.000239129 6.70019e-05 0.000134004 0 0.000230513 0 0.000146416 0 0.00077306 0 0.000456717 0.000230513 0.000383493 0.000146416 0.000239129 0.00077306 0.00135942 0.000456717 0.000826276 0 0.000146416 0 6.70019e-05 0 0.000456717 0 0.000134004 0.000146416 0.000239129 6.70019e-05 0.000134004 0.000456717 0.000826276 0.000134004 0.000268008 0 0 0 0 0.000134004 0.000212581 6.70019e-05 5.75208e-05 0 0 0 0 0.000212581 0.000343381 5.75208e-05 0.000131645 0 0 0 0 6.70019e-05 5.75208e-05 0 0 0 0 0 0 5.75208e-05 0.000131645 0 0 0.000134004 0.000212581 6.70019e-05 5.75208e-05 0.000268008 0.000601115 0.000134004 0.000172904 0.000212581 0.000343381 5.75208e-05 0.000131645 0.000601115 0.000909822 0.000172904 0.000343406 6.70019e-05 5.75208e-05 0 0 0.000134004 0.000172904 0 0 5.75208e-05 0.000131645 0 0 0.000172904 0.000343406 0 0 0 0 0 0 0.000343381 0.00039695 0.000131645 0.000192214 0 0 0 0 0.00039695 0.000416718 0.000192214 0.000208359 0 0 0 0 0.000131645 0.000192214 0 0 0 0 0 0 0.000192214 0.000208359 0 0 0.000343381 0.00039695 0.000131645 0.000192214 0.000909822 0.00102229 0.000343406 0.000436661 0.00039695 0.000416718 0.000192214 0.000208359 0.00102229 0.000833435 0.000436661 0.000416718 0.000131645 0.000192214 0 0 0.000343406 0.000436661 0 0 0.000192214 0.000208359 0 0 0.000436661 0.000416718 0 0 0.000833435 0.000416718 0.000416718 0.000208359 0.00146726 0.000808452 0.000610345 0.000395361 0.000416718 0 0.000208359 0 0.000808452 0 0.000395361 0 0.000416718 0.000208359 0 0 0.000610345 0.000395361 0 0 0.000208359 0 0 0 0.000395361 0 0 0 0.00146726 0.000808452 0.000610345 0.000395361 0.00189045 0.00103808 0.000714289 0.000437999 0.000808452 0 0.000395361 0 0.00103808 0 0.000437999 0 0.000610345 0.000395361 0 0 0.000714289 0.000437999 0 0 0.000395361 0 0 0 0.000437999 0 0 0 0 0 0 0.000437999 0 0 0 0.000395361 0 0 0.000437999 0.000714289 0 0 0.000395361 0.000610345 0 0.000437999 0 0.00103808 0 0.000395361 0 0.000808452 0.000437999 0.000714289 0.00103808 0.00189045 0.000395361 0.000610345 0.000808452 0.00146726 0 0 0 0.000395361 0 0 0 0.000208359 0 0 0.000395361 0.000610345 0 0 0.000208359 0.000416718 0 0.000395361 0 0.000808452 0 0.000208359 0 0.000416718 0.000395361 0.000610345 0.000808452 0.00146726 0.000208359 0.000416718 0.000416718 0.000833435 0 0 0.000416718 0.000436661 0 0 0.000208359 0.000192214 0 0 0.000436661 0.000343406 0 0 0.00019