# vtk DataFile Version 3.0
#This file was generated by the deal.II library on 2016/12/19 at 17:17:53
ASCII
DATASET UNSTRUCTURED_GRID

POINTS 1632 double
-1 -1 -1
-0.5 -1 -1
-1 -0.5 -1
-0.5 -0.5 -1
-1 -1 -0.5
-0.5 -1 -0.5
-1 -0.5 -0.5
-0.5 -0.5 -0.5
-0.5 -1 -1
0 -1 -1
-0.5 -0.5 -1
0 -0.5 -1
-0.5 -1 -0.5
0 -1 -0.5
-0.5 -0.5 -0.5
0 -0.5 -0.5
-1 -0.5 -1
-0.5 -0.5 -1
-1 0 -1
-0.5 0 -1
-1 -0.5 -0.5
-0.5 -0.5 -0.5
-1 0 -0.5
-0.5 0 -0.5
-0.5 -0.5 -1
0 -0.5 -1
-0.5 0 -1
0 0 -1
-0.5 -0.5 -0.5
0 -0.5 -0.5
-0.5 0 -0.5
0 0 -0.5
-1 -1 -0.5
-0.5 -1 -0.5
-1 -0.5 -0.5
-0.5 -0.5 -0.5
-1 -1 0
-0.5 -1 0
-1 -0.5 0
-0.5 -0.5 3.46945e-18
-0.5 -1 -0.5
0 -1 -0.5
-0.5 -0.5 -0.5
0 -0.5 -0.5
-0.5 -1 0
0 -1 0
-0.5 -0.5 3.46945e-18
0 -0.5 6.93889e-18
0 -1 -1
0.5 -1 -1
0 -0.5 -1
0.5 -0.5 -1
0 -1 -0.5
0.5 -1 -0.5
0 -0.5 -0.5
0.5 -0.5 -0.5
0.5 -1 -1
1 -1 -1
0.5 -0.5 -1
1 -0.5 -1
0.5 -1 -0.5
1 -1 -0.5
0.5 -0.5 -0.5
1 -0.5 -0.5
0 -0.5 -1
0.5 -0.5 -1
0 0 -1
0.5 0 -1
0 -0.5 -0.5
0.5 -0.5 -0.5
0 0 -0.5
0.5 0 -0.5
0.5 -0.5 -1
1 -0.5 -1
0.5 0 -1
1 0 -1
0.5 -0.5 -0.5
1 -0.5 -0.5
0.5 0 -0.5
1 0 -0.5
0.5 -1 -0.5
1 -1 -0.5
0.5 -0.5 -0.5
1 -0.5 -0.5
0.5 -1 0
1 -1 0
0.5 -0.5 3.46945e-18
1 -0.5 0
-1 0 -1
-0.5 0 -1
-1 0.5 -1
-0.5 0.5 -1
-1 0 -0.5
-0.5 0 -0.5
-1 0.5 -0.5
-0.5 0.5 -0.5
-0.5 0 -1
0 0 -1
-0.5 0.5 -1
0 0.5 -1
-0.5 0 -0.5
0 0 -0.5
-0.5 0.5 -0.5
0 0.5 -0.5
-1 0.5 -1
-0.5 0.5 -1
-1 1 -1
-0.5 1 -1
-1 0.5 -0.5
-0.5 0.5 -0.5
-1 1 -0.5
-0.5 1 -0.5
-0.5 0.5 -1
0 0.5 -1
-0.5 1 -1
0 1 -1
-0.5 0.5 -0.5
0 0.5 -0.5
-0.5 1 -0.5
0 1 -0.5
-1 0.5 -0.5
-0.5 0.5 -0.5
-1 1 -0.5
-0.5 1 -0.5
-1 0.5 0
-0.5 0.5 3.46945e-18
-1 1 0
-0.5 1 0
0 0 -1
0.5 0 -1
0 0.5 -1
0.5 0.5 -1
0 0 -0.5
0.5 0 -0.5
0 0.5 -0.5
0.5 0.5 -0.5
0.5 0 -1
1 0 -1
0.5 0.5 -1
1 0.5 -1
0.5 0 -0.5
1 0 -0.5
0.5 0.5 -0.5
1 0.5 -0.5
0 0.5 -1
0.5 0.5 -1
0 1 -1
0.5 1 -1
0 0.5 -0.5
0.5 0.5 -0.5
0 1 -0.5
0.5 1 -0.5
0.5 0.5 -1
1 0.5 -1
0.5 1 -1
1 1 -1
0.5 0.5 -0.5
1 0.5 -0.5
0.5 1 -0.5
1 1 -0.5
0 0.5 -0.5
0.5 0.5 -0.5
0 1 -0.5
0.5 1 -0.5
0 0.5 6.93889e-18
0.5 0.5 3.46945e-18
0 1 0
0.5 1 0
0.5 0.5 -0.5
1 0.5 -0.5
0.5 1 -0.5
1 1 -0.5
0.5 0.5 3.46945e-18
1 0.5 0
0.5 1 0
1 1 0
-1 -1 0
-0.5 -1 0
-1 -0.5 0
-0.5 -0.5 3.46945e-18
-1 -1 0.5
-0.5 -1 0.5
-1 -0.5 0.5
-0.5 -0.5 0.5
-0.5 -1 0
0 -1 0
-0.5 -0.5 3.46945e-18
0 -0.5 6.93889e-18
-0.5 -1 0.5
0 -1 0.5
-0.5 -0.5 0.5
0 -0.5 0.5
-1 -1 0.5
-0.5 -1 0.5
-1 -0.5 0.5
-0.5 -0.5 0.5
-1 -1 1
-0.5 -1 1
-1 -0.5 1
-0.5 -0.5 1
-0.5 -1 0.5
0 -1 0.5
-0.5 -0.5 0.5
0 -0.5 0.5
-0.5 -1 1
0 -1 1
-0.5 -0.5 1
0 -0.5 1
-1 -0.5 0.5
-0.5 -0.5 0.5
-1 0 0.5
-0.5 0 0.5
-1 -0.5 1
-0.5 -0.5 1
-1 0 1
-0.5 0 1
-0.5 -0.5 0.5
0 -0.5 0.5
-0.5 0 0.5
0 0 0.5
-0.5 -0.5 1
0 -0.5 1
-0.5 0 1
0 0 1
0.5 -1 0
1 -1 0
0.5 -0.5 3.46945e-18
1 -0.5 0
0.5 -1 0.5
1 -1 0.5
0.5 -0.5 0.5
1 -0.5 0.5
0 -1 0.5
0.5 -1 0.5
0 -0.5 0.5
0.5 -0.5 0.5
0 -1 1
0.5 -1 1
0 -0.5 1
0.5 -0.5 1
0.5 -1 0.5
1 -1 0.5
0.5 -0.5 0.5
1 -0.5 0.5
0.5 -1 1
1 -1 1
0.5 -0.5 1
1 -0.5 1
0 -0.5 0.5
0.5 -0.5 0.5
0 0 0.5
0.5 0 0.5
0 -0.5 1
0.5 -0.5 1
0 0 1
0.5 0 1
0.5 -0.5 0.5
1 -0.5 0.5
0.5 0 0.5
1 0 0.5
0.5 -0.5 1
1 -0.5 1
0.5 0 1
1 0 1
-1 0.5 0
-0.5 0.5 3.46945e-18
-1 1 0
-0.5 1 0
-1 0.5 0.5
-0.5 0.5 0.5
-1 1 0.5
-0.5 1 0.5
-1 0 0.5
-0.5 0 0.5
-1 0.5 0.5
-0.5 0.5 0.5
-1 0 1
-0.5 0 1
-1 0.5 1
-0.5 0.5 1
-0.5 0 0.5
0 0 0.5
-0.5 0.5 0.5
0 0.5 0.5
-0.5 0 1
0 0 1
-0.5 0.5 1
0 0.5 1
-1 0.5 0.5
-0.5 0.5 0.5
-1 1 0.5
-0.5 1 0.5
-1 0.5 1
-0.5 0.5 1
-1 1 1
-0.5 1 1
-0.5 0.5 0.5
0 0.5 0.5
-0.5 1 0.5
0 1 0.5
-0.5 0.5 1
0 0.5 1
-0.5 1 1
0 1 1
0 0.5 6.93889e-18
0.5 0.5 3.46945e-18
0 1 0
0.5 1 0
0 0.5 0.5
0.5 0.5 0.5
0 1 0.5
0.5 1 0.5
0.5 0.5 3.46945e-18
1 0.5 0
0.5 1 0
1 1 0
0.5 0.5 0.5
1 0.5 0.5
0.5 1 0.5
1 1 0.5
0 0 0.5
0.5 0 0.5
0 0.5 0.5
0.5 0.5 0.5
0 0 1
0.5 0 1
0 0.5 1
0.5 0.5 1
0.5 0 0.5
1 0 0.5
0.5 0.5 0.5
1 0.5 0.5
0.5 0 1
1 0 1
0.5 0.5 1
1 0.5 1
0 0.5 0.5
0.5 0.5 0.5
0 1 0.5
0.5 1 0.5
0 0.5 1
0.5 0.5 1
0 1 1
0.5 1 1
0.5 0.5 0.5
1 0.5 0.5
0.5 1 0.5
1 1 0.5
0.5 0.5 1
1 0.5 1
0.5 1 1
1 1 1
-1 -0.5 -0.5
-0.75 -0.5 -0.5
-1 -0.25 -0.5
-0.75 -0.25 -0.5
-1 -0.5 -0.25
-0.75 -0.5 -0.25
-1 -0.25 -0.25
-0.75 -0.25 -0.25
-0.75 -0.5 -0.5
-0.5 -0.5 -0.5
-0.75 -0.25 -0.5
-0.5 -0.25 -0.5
-0.75 -0.5 -0.25
-0.5 -0.5 -0.25
-0.75 -0.25 -0.25
-0.5 -0.25 -0.25
-1 -0.25 -0.5
-0.75 -0.25 -0.5
-1 0 -0.5
-0.75 0 -0.5
-1 -0.25 -0.25
-0.75 -0.25 -0.25
-1 0 -0.25
-0.75 0 -0.25
-0.75 -0.25 -0.5
-0.5 -0.25 -0.5
-0.75 0 -0.5
-0.5 0 -0.5
-0.75 -0.25 -0.25
-0.5 -0.25 -0.25
-0.75 0 -0.25
-0.5 0 -0.25
-1 -0.5 -0.25
-0.75 -0.5 -0.25
-1 -0.25 -0.25
-0.75 -0.25 -0.25
-1 -0.5 0
-0.75 -0.5 1.73472e-18
-1 -0.25 0
-0.75 -0.25 2.60209e-18
-0.75 -0.5 -0.25
-0.5 -0.5 -0.25
-0.75 -0.25 -0.25
-0.5 -0.25 -0.25
-0.75 -0.5 1.73472e-18
-0.5 -0.5 3.46945e-18
-0.75 -0.25 2.60209e-18
-0.5 -0.25 5.20417e-18
-1 -0.25 -0.25
-0.75 -0.25 -0.25
-1 0 -0.25
-0.75 0 -0.25
-1 -0.25 0
-0.75 -0.25 2.60209e-18
-1 0 0
-0.75 0 3.46945e-18
-0.75 -0.25 -0.25
-0.5 -0.25 -0.25
-0.75 0 -0.25
-0.5 0 -0.25
-0.75 -0.25 2.60209e-18
-0.5 -0.25 5.20417e-18
-0.75 0 3.46945e-18
-0.5 0 6.93889e-18
-0.5 -0.5 -0.5
-0.25 -0.5 -0.5
-0.5 -0.25 -0.5
-0.25 -0.25 -0.5
-0.5 -0.5 -0.25
-0.25 -0.5 -0.25
-0.5 -0.25 -0.25
-0.25 -0.25 -0.25
-0.25 -0.5 -0.5
0 -0.5 -0.5
-0.25 -0.25 -0.5
0 -0.25 -0.5
-0.25 -0.5 -0.25
0 -0.5 -0.25
-0.25 -0.25 -0.25
0 -0.25 -0.25
-0.5 -0.25 -0.5
-0.25 -0.25 -0.5
-0.5 0 -0.5
-0.25 0 -0.5
-0.5 -0.25 -0.25
-0.25 -0.25 -0.25
-0.5 0 -0.25
-0.25 0 -0.25
-0.25 -0.25 -0.5
0 -0.25 -0.5
-0.25 0 -0.5
0 0 -0.5
-0.25 -0.25 -0.25
0 -0.25 -0.25
-0.25 0 -0.25
0 0 -0.25
-0.5 -0.5 -0.25
-0.25 -0.5 -0.25
-0.5 -0.25 -0.25
-0.25 -0.25 -0.25
-0.5 -0.5 3.46945e-18
-0.25 -0.5 5.20417e-18
-0.5 -0.25 5.20417e-18
-0.25 -0.25 7.80626e-18
-0.25 -0.5 -0.25
0 -0.5 -0.25
-0.25 -0.25 -0.25
0 -0.25 -0.25
-0.25 -0.5 5.20417e-18
0 -0.5 6.93889e-18
-0.25 -0.25 7.80626e-18
0 -0.25 1.04083e-17
-0.5 -0.25 -0.25
-0.25 -0.25 -0.25
-0.5 0 -0.25
-0.25 0 -0.25
-0.5 -0.25 5.20417e-18
-0.25 -0.25 7.80626e-18
-0.5 0 6.93889e-18
-0.25 0 1.04083e-17
-0.25 -0.25 -0.25
0 -0.25 -0.25
-0.25 0 -0.25
0 0 -0.25
-0.25 -0.25 7.80626e-18
0 -0.25 1.04083e-17
-0.25 0 1.04083e-17
0 0 1.38778e-17
0 -1 -0.5
0.25 -1 -0.5
0 -0.75 -0.5
0.25 -0.75 -0.5
0 -1 -0.25
0.25 -1 -0.25
0 -0.75 -0.25
0.25 -0.75 -0.25
0.25 -1 -0.5
0.5 -1 -0.5
0.25 -0.75 -0.5
0.5 -0.75 -0.5
0.25 -1 -0.25
0.5 -1 -0.25
0.25 -0.75 -0.25
0.5 -0.75 -0.25
0 -0.75 -0.5
0.25 -0.75 -0.5
0 -0.5 -0.5
0.25 -0.5 -0.5
0 -0.75 -0.25
0.25 -0.75 -0.25
0 -0.5 -0.25
0.25 -0.5 -0.25
0.25 -0.75 -0.5
0.5 -0.75 -0.5
0.25 -0.5 -0.5
0.5 -0.5 -0.5
0.25 -0.75 -0.25
0.5 -0.75 -0.25
0.25 -0.5 -0.25
0.5 -0.5 -0.25
0 -1 -0.25
0.25 -1 -0.25
0 -0.75 -0.25
0.25 -0.75 -0.25
0 -1 0
0.25 -1 0
0 -0.75 3.46945e-18
0.25 -0.75 2.60209e-18
0.25 -1 -0.25
0.5 -1 -0.25
0.25 -0.75 -0.25
0.5 -0.75 -0.25
0.25 -1 0
0.5 -1 0
0.25 -0.75 2.60209e-18
0.5 -0.75 1.73472e-18
0 -0.75 -0.25
0.25 -0.75 -0.25
0 -0.5 -0.25
0.25 -0.5 -0.25
0 -0.75 3.46945e-18
0.25 -0.75 2.60209e-18
0 -0.5 6.93889e-18
0.25 -0.5 5.20417e-18
0.25 -0.75 -0.25
0.5 -0.75 -0.25
0.25 -0.5 -0.25
0.5 -0.5 -0.25
0.25 -0.75 2.60209e-18
0.5 -0.75 1.73472e-18
0.25 -0.5 5.20417e-18
0.5 -0.5 3.46945e-18
0 -0.5 -0.5
0.25 -0.5 -0.5
0 -0.25 -0.5
0.25 -0.25 -0.5
0 -0.5 -0.25
0.25 -0.5 -0.25
0 -0.25 -0.25
0.25 -0.25 -0.25
0.25 -0.5 -0.5
0.5 -0.5 -0.5
0.25 -0.25 -0.5
0.5 -0.25 -0.5
0.25 -0.5 -0.25
0.5 -0.5 -0.25
0.25 -0.25 -0.25
0.5 -0.25 -0.25
0 -0.25 -0.5
0.25 -0.25 -0.5
0 0 -0.5
0.25 0 -0.5
0 -0.25 -0.25
0.25 -0.25 -0.25
0 0 -0.25
0.25 0 -0.25
0.25 -0.25 -0.5
0.5 -0.25 -0.5
0.25 0 -0.5
0.5 0 -0.5
0.25 -0.25 -0.25
0.5 -0.25 -0.25
0.25 0 -0.25
0.5 0 -0.25
0 -0.5 -0.25
0.25 -0.5 -0.25
0 -0.25 -0.25
0.25 -0.25 -0.25
0 -0.5 6.93889e-18
0.25 -0.5 5.20417e-18
0 -0.25 1.04083e-17
0.25 -0.25 7.80626e-18
0.25 -0.5 -0.25
0.5 -0.5 -0.25
0.25 -0.25 -0.25
0.5 -0.25 -0.25
0.25 -0.5 5.20417e-18
0.5 -0.5 3.46945e-18
0.25 -0.25 7.80626e-18
0.5 -0.25 5.20417e-18
0 -0.25 -0.25
0.25 -0.25 -0.25
0 0 -0.25
0.25 0 -0.25
0 -0.25 1.04083e-17
0.25 -0.25 7.80626e-18
0 0 1.38778e-17
0.25 0 1.04083e-17
0.25 -0.25 -0.25
0.5 -0.25 -0.25
0.25 0 -0.25
0.5 0 -0.25
0.25 -0.25 7.80626e-18
0.5 -0.25 5.20417e-18
0.25 0 1.04083e-17
0.5 0 6.93889e-18
0.5 -0.5 -0.5
0.75 -0.5 -0.5
0.5 -0.25 -0.5
0.75 -0.25 -0.5
0.5 -0.5 -0.25
0.75 -0.5 -0.25
0.5 -0.25 -0.25
0.75 -0.25 -0.25
0.75 -0.5 -0.5
1 -0.5 -0.5
0.75 -0.25 -0.5
1 -0.25 -0.5
0.75 -0.5 -0.25
1 -0.5 -0.25
0.75 -0.25 -0.25
1 -0.25 -0.25
0.5 -0.25 -0.5
0.75 -0.25 -0.5
0.5 0 -0.5
0.75 0 -0.5
0.5 -0.25 -0.25
0.75 -0.25 -0.25
0.5 0 -0.25
0.75 0 -0.25
0.75 -0.25 -0.5
1 -0.25 -0.5
0.75 0 -0.5
1 0 -0.5
0.75 -0.25 -0.25
1 -0.25 -0.25
0.75 0 -0.25
1 0 -0.25
0.5 -0.5 -0.25
0.75 -0.5 -0.25
0.5 -0.25 -0.25
0.75 -0.25 -0.25
0.5 -0.5 3.46945e-18
0.75 -0.5 1.73472e-18
0.5 -0.25 5.20417e-18
0.75 -0.25 2.60209e-18
0.75 -0.5 -0.25
1 -0.5 -0.25
0.75 -0.25 -0.25
1 -0.25 -0.25
0.75 -0.5 1.73472e-18
1 -0.5 0
0.75 -0.25 2.60209e-18
1 -0.25 0
0.5 -0.25 -0.25
0.75 -0.25 -0.25
0.5 0 -0.25
0.75 0 -0.25
0.5 -0.25 5.20417e-18
0.75 -0.25 2.60209e-18
0.5 0 6.93889e-18
0.75 0 3.46945e-18
0.75 -0.25 -0.25
1 -0.25 -0.25
0.75 0 -0.25
1 0 -0.25
0.75 -0.25 2.60209e-18
1 -0.25 0
0.75 0 3.46945e-18
1 0 0
-1 0 -0.5
-0.75 0 -0.5
-1 0.25 -0.5
-0.75 0.25 -0.5
-1 0 -0.25
-0.75 0 -0.25
-1 0.25 -0.25
-0.75 0.25 -0.25
-0.75 0 -0.5
-0.5 0 -0.5
-0.75 0.25 -0.5
-0.5 0.25 -0.5
-0.75 0 -0.25
-0.5 0 -0.25
-0.75 0.25 -0.25
-0.5 0.25 -0.25
-1 0.25 -0.5
-0.75 0.25 -0.5
-1 0.5 -0.5
-0.75 0.5 -0.5
-1 0.25 -0.25
-0.75 0.25 -0.25
-1 0.5 -0.25
-0.75 0.5 -0.25
-0.75 0.25 -0.5
-0.5 0.25 -0.5
-0.75 0.5 -0.5
-0.5 0.5 -0.5
-0.75 0.25 -0.25
-0.5 0.25 -0.25
-0.75 0.5 -0.25
-0.5 0.5 -0.25
-1 0 -0.25
-0.75 0 -0.25
-1 0.25 -0.25
-0.75 0.25 -0.25
-1 0 0
-0.75 0 3.46945e-18
-1 0.25 0
-0.75 0.25 2.60209e-18
-0.75 0 -0.25
-0.5 0 -0.25
-0.75 0.25 -0.25
-0.5 0.25 -0.25
-0.75 0 3.46945e-18
-0.5 0 6.93889e-18
-0.75 0.25 2.60209e-18
-0.5 0.25 5.20417e-18
-1 0.25 -0.25
-0.75 0.25 -0.25
-1 0.5 -0.25
-0.75 0.5 -0.25
-1 0.25 0
-0.75 0.25 2.60209e-18
-1 0.5 0
-0.75 0.5 1.73472e-18
-0.75 0.25 -0.25
-0.5 0.25 -0.25
-0.75 0.5 -0.25
-0.5 0.5 -0.25
-0.75 0.25 2.60209e-18
-0.5 0.25 5.20417e-18
[...]
POINT_DATA 1632
SCALARS x_displacement double 1
LOOKUP_TABLE default
0 0 0 0 0 0 0 0.000453883 0 0 0 0 0 0 0.000453883 0.000452731 0 0 0 0 0 0.000453883 0 0.000569669 0 0 0 0 0.000453883 0.000452731 0.000569669 0.000940339 0 0 0 0.000453883 0 0 0 0.00086272 0 0 0.000453883 0.000452731 0 0 0.00086272 0.000967573 0 0 0 0 0 0 0.000452731 0.00018966 0 0 0 0 0 0 0.00018966 0 0 0 0 0 0.000452731 0.00018966 0.000940339 0.000569669 0 0 0 0 0.00018966 0 0.000569669 0 0 0 0.00018966 0 0 0 0.000269703 0 0 0 0 0 0 0.000569669 0 0.00018966 0 0 0 0 0.000569669 0.000940339 0.00018966 0.000452731 0 0 0 0 0 0.00018966 0 0 0 0 0 0 0.00018966 0.000452731 0 0 0 0.00018966 0 0 0 0.000269703 0 0 0 0 0 0 0.000940339 0.000569669 0.000452731 0.000453883 0 0 0 0 0.000569669 0 0.000453883 0 0 0 0 0 0.000452731 0.000453883 0 0 0 0 0 0 0.000453883 0 0 0 0.000452731 0.000453883 0 0 0.000967573 0.00086272 0 0 0.000453883 0 0 0 0.00086272 0 0 0 0 0 0 0.00086272 0 0 0 0.000453883 0 0 0.00086272 0.000967573 0 0 0.000453883 0.000452731 0 0 0 0.000453883 0 0 0 0 0 0 0.000453883 0.000452731 0 0 0 0 0 0.000453883 0 0.000569669 0 0 0 0 0.000453883 0.000452731 0.000569669 0.000940339 0 0 0 0 0 0 0.000269703 0 0 0 0.00018966 0 0 0 0.000452731 0.00018966 0 0 0 0 0 0 0.00018966 0 0 0 0 0 0.000452731 0.00018966 0.000940339 0.000569669 0 0 0 0 0.00018966 0 0.000569669 0 0 0 0 0 0 0.000269703 0 0 0 0.00018966 0 0 0 0.000569669 0 0.00018966 0 0 0 0 0.000569669 0.000940339 0.00018966 0.000452731 0 0 0 0 0 0.00018966 0 0 0 0 0 0 0.00018966 0.000452731 0 0 0 0 0 0 0.000967573 0.00086272 0 0 0.000452731 0.000453883 0 0 0.00086272 0 0 0 0.000453883 0 0 0 0.000940339 0.000569669 0.000452731 0.000453883 0 0 0 0 0.000569669 0 0.000453883 0 0 0 0 0 0.000452731 0.000453883 0 0 0 0 0 0 0.000453883 0 0 0 0 0 0 0 0 0.000226942 0 0.000255888 0 0.000329151 0 0.000837657 0.000226942 0.000453883 0.000255888 0.000511776 0.000329151 0.000658302 0.000837657 0.00151278 0 0.000255888 0 0.000284835 0 0.000837657 0 0.00127672 0.000255888 0.000511776 0.000284835 0.000569669 0.000837657 0.00151278 0.00127672 0.00191499 0 0.000329151 0 0.000837657 0 0.00043136 0 0.00136943 0.000329151 0.000658302 0.000837657 0.00151278 0.00043136 0.00086272 0.00136943 0.0021825 0 0.000837657 0 0.00127672 0 0.00136943 0 0.00315629 0.000837657 0.00151278 0.00127672 0.00191499 0.00136943 0.0021825 0.00315629 0.00958758 0.000453883 0.000453307 0.000511776 0.000604156 0.000658302 0.000684227 0.00151278 0.00177363 0.000453307 0.000452731 0.000604156 0.000696535 0.000684227 0.000710152 0.00177363 0.00151504 0.000511776 0.000604156 0.000569669 0.000755004 0.00151278 0.00177363 0.00191499 0.00222983 0.000604156 0.000696535 0.000755004 0.000940339 0.00177363 0.00151504 0.00222983 0.00203627 0.000658302 0.000684227 0.00151278 0.00177363 0.00086272 0.000915147 0.0021825 0.00287155 0.000684227 0.000710152 0.00177363 0.00151504 0.000915147 0.000967573 0.00287155 0.00201658 0.00151278 0.00177363 0.00191499 0.00222983 0.0021825 0.00287155 0.00958758 0.00434445 0.00177363 0.00151504 0.00222983 0.00203627 0.00287155 0.00201658 0.00434445 0.00266142 0 0 0.000226366 0.000160598 0 0 0.000355076 0.000174223 0 0 0.000160598 9.48298e-05 0 0 0.000174223 0.000114841 0.000226366 0.000160598 0.000452731 0.000321195 0.000355076 0.000174223 0.000710152 0.000498462 0.000160598 9.48298e-05 0.000321195 0.00018966 0.000174223 0.000114841 0.000498462 0.000229682 0 0 0.000355076 0.000174223 0 0 0.000483787 0.00020242 0 0 0.000174223 0.000114841 0 0 0.00020242 0.000134852 0.000355076 0.000174223 0.000710152 0.000498462 0.000483787 0.00020242 0.000967573 0.000535291 0.000174223 0.000114841 0.000498462 0.000229682 0.00020242 0.000134852 0.000535291 0.000269703 0.000452731 0.000321195 0.000696535 0.0005381 0.000710152 0.000498462 0.00151504 0.00129016 0.000321195 0.00018966 0.0005381 0.000379664 0.000498462 0.000229682 0.00129016 0.00114625 0.000696535 0.0005381 0.000940339 0.000755004 0.00151504 0.00129016 0.00203627 0.00222983 0.0005381 0.000379664 0.000755004 0.000569669 0.00129016 0.00114625 0.00222983 0.00191499 0.000710152 0.000498462 0.00151504 0.00129016 0.000967573 0.000535291 0.00201658 0.00160702 0.000498462 0.000229682 0.00129016 0.00114625 0.000535291 0.000269703 0.00160702 0.0016646 0.00151504 0.00129016 0.00203627 0.00222983 0.00201658 0.00160702 0.00266142 0.00434445 0.00129016 0.00114625 0.00222983 0.00191499 0.00160702 0.0016646 0.00434445 0.00958758 0.00018966 9.48298e-05 0.000379664 0.000189832 0.000229682 0.000114841 0.00114625 0.000666612 9.48298e-05 0 0.000189832 0 0.000114841 0 0.000666612 0 0.000379664 0.000189832 0.000569669 0.000284835 0.00114625 0.000666612 0.00191499 0.00127672 0.000189832 0 0.000284835 0 0.000666612 0 0.00127672 0 0.000229682 0.000114841 0.00114625 0.000666612 0.000269703 0.000134852 0.0016646 0.00117621 0.000114841 0 0.000666612 0 0.000134852 0 0.00117621 0 0.00114625 0.000666612 0.00191499 0.00127672 0.0016646 0.00117621 0.00958758 0.00315629 0.000666612 0 0.00127672 0 0.00117621 0 0.00315629 0 0 0.000284835 0 0.000189832 0 0.00127672 0 0.000666612 0.000284835 0.000569669 0.000189832 0.000379664 0.00127672 0.00191499 0.000666612 0.00114625 0 0.000189832 0 9.48298e-05 0 0.000666612 0 0.000114841 0.000189832 0.000379664 9.48298e-05 0.00018966 0.000666612 0.00114625 0.000114841 0.000229682 0 0.00127672 0 0.000666612 0 0.00315629 0 0.00117621 0.00127672 0.00191499 0.000666612 0.00114625 0.00315629 0.00958758 0.00117621 0.0016646 0 0.000666612 0 0.000114841 0 0.00117621 0 0.000134852 0.000666612 0.00114625 0.000114841 0.000229682 0.00117621 0.0016646 0.000134852 0.000269703 0.000569669 0.000755004 0.000379664 0.0005381 0.00191499 0.00222983 0.00114625 0.00129016 0.000755004 0.000940339 0.0005381 0.000696535 0.00222983 0.00203627 0.00129016 0.00151504 0.000379664 0.0005381 0.00018966 0.000321195 0.00114625 0.00129016 0.000229682 0.000498462 0.0005381 0.000696535 0.000321195 0.000452731 0.00129016 0.00151504 0.000498462 0.000710152 0.00191499 0.00222983 0.00114625 0.00129016 0.00958758 0.00434445 0.0016646 0.00160702 0.00222983 0.00203627 0.00129016 0.00151504 0.00434445 0.00266142 0.00160702 0.00201658 0.00114625 0.00129016 0.000229682 0.000498462 0.0016646 0.00160702 0.000269703 0.000535291 0.00129016 0.00151504 0.000498462 0.000710152 0.00160702 0.00201658 0.000535291 0.000967573 0.00018966 0.000321195 9.48298e-05 0.000160598 0.000229682 0.000498462 0.000114841 0.000174223 0.000321195 0.000452731 0.000160598 0.000226366 0.000498462 0.000710152 0.000174223 0.000355076 9.48298e-05 0.000160598 0 0 0.000114841 0.000174223 0 0 0.000160598 0.000226366 0 0 0.000174223 0.000355076 0 0 0.000229682 0.000498462 0.000114841 0.000174223 0.000269703 0.000535291 0.000134852 0.00020242 0.000498462 0.000710152 0.000174223 0.000355076 0.000535291 0.000967573 0.00020242 0.000483787 0.000114841 0.000174223 0 0 0.000134852 0.00020242 0 0 0.000174223 0.000355076 0 0 0.00020242 0.000483787 0 0 0.000940339 0.000755004 0.000696535 0.000604156 0.00203627 0.00222983 0.00151504 0.00177363 0.000755004 0.000569669 0.000604156 0.000511776 0.00222983 0.00191499 0.00177363 0.00151278 0.000696535 0.000604156 0.000452731 0.000453307 0.00151504 0.00177363 0.000710152 0.000684227 0.000604156 0.000511776 0.000453307 0.000453883 0.00177363 0.00151278 0.000684227 0.000658302 0.00203627 0.00222983 0.00151504 0.00177363 0.00266142 0.00434445 0.00201658 0.00287155 0.00222983 0.00191499 0.00177363 0.00151278 0.00434445 0.00958758 0.00287155 0.0021825 0.00151504 0.00177363 0.000710152 0.000684227 0.00201658 0.00287155 0.000967573 0.000915147 0.00177363 0.00151278 0.000684227 0.000658302 0.00287155 0.0021825 0.000915147 0.00086272 0.000569669 0.000284835 0.000511776 0.000255888 0.00191499 0.00127672 0.00151278 0.000837657 0.000284835 0 0.000255888 0 0.00127672 0 0.000837657 0 0.000511776 0.000255888 0.000453883 0.000226942 0.00151278 0.000837657 0.000658302 0.000329151 0.000255888 0 0.000226942 0 0.000837657 0 0.000329151 0 0.00191499 0.00127672 0.00151278 0.000837657 0.00958758 0.00315629 0.0021825 0.00136943 0.00127672 0 0.000837657 0 0.00315629 0 0.00136943 0 0.00151278 0.000837657 0.000658302 0.000329151 0.0021825 0.00136943 0.00086272 0.00043136 0.000837657 0 0.000329151 0 0.00136943 0 0.00043136 0 0 0.00043136 0 0.00136943 0 0.000329151 0 0.000837657 0.00043136 0.00086272 0.00136943 0.0021825 0.000329151 0.000658302 0.000837657 0.00151278 0 0.00136943 0 0.00315629 0 0.000837657 0 0.00127672 0.00136943 0.0021825 0.00315629 0.00958758 0.000837657 0.00151278 0.00127672 0.00191499 0 0.000329151 0 0.000837657 0 0.000226942 0 0.000255888 0.000329151 0.000658302 0.000837657 0.00151278 0.000226942 0.000453883 0.000255888 0.000511776 0 0.000837657 0 0.00127672 0 0.000255888 0 0.000284835 0.000837657 0.00151278 0.00127672 0.00191499 0.000255888 0.000511776 0.000284835 0.000569669 0.00086272 0.000915147 0.0021825 0.00287155 0.000658302 0.000684227 0.00151278 0.00177363 0.000915147 0.000967573 0.00287155 0.00201658 0.000684227 0.000710152 0.00177363 0.00151504 0.0021825 0.00287155 0.00958758 0.00434445 0.00151278 0.00177363 0.00191499 0.00222983 0.00287155 0.00201658 0.00434445 0.00266142 0.00177363 0.00151504 0.00222983 0.00203627 0.000658302 0.000684227 0.00151278 0.00177363 0.000453883 0.000453307 0.000511776 0.000604156 0.000684227 0.000710152 0.00177363 0.00151504 0.000453307 0.000452731 0.000604156 0.000696535 0.00151278 0.00177363 0.00191499 0.00222983 0.000511776 0.000604156 0.000569669 0.000755004 0.00177363 0.00151504 0.00222983 0.00203627 0.000604156 0.000696535 0.000755004 0.000940339 0 0 0.000483787 0.00020242 0 0 0.000355076 0.000174223 0 0 0.00020242 0.000134852 0 0 0.000174223 0.000114841 0.000483787 0.00020242 0.000967573 0.000535291 0.000355076 0.000174223 0.000710152 0.000498462 0.00020242 0.000134852 0.000535291 0.000269703 0.000174223 0.000114841 0.000498462 0.000229682 0 0 0.000355076 0.000174223 0 0 0.000226366 0.000160598 0 0 0.000174223 0.000114841 0 0 0.000160598 9.48298e-05 0.000355076 0.000174223 0.000710152 0.000498462 0.000226366 0.000160598 0.000452731 0.000321195 0.000174223 0.000114841 0.000498462 0.000229682 0.000160598 9.48298e-05 0.000321195 0.00018966 0.000967573 0.000535291 0.00201658 0.00160702 0.000710152 0.000498462 0.00151504 0.00129016 0.000535291 0.000269703 0.00160702 0.0016646 0.000498462 0.000229682 0.00129016 0.00114625 0.00201658 0.00160702 0.00266142 0.00434445 0.00151504 0.00129016 0.00203627 0.00222983 0.00160702 0.0016646 0.00434445 0.00958758 0.00129016 0.00114625 0.00222983 0.00191499 0.000710152 0.000498462 0.00151504 0.00129016 0.000452731 0.000321195 0.000696535 0.0005381 0.000498462 0.000229682 0.00129016 0.00114625 0.000321195 0.00018966 0.0005381 0.000379664 0.00151504 0.00129016 0.00203627 0.00222983 0.000696535 0.0005381 0.000940339 0.000755004 0.00129016 0.00114625 0.00222983 0.00191499 0.0005381 0.000379664 0.000755004 0.000569669 0.000269703 0.000134852 0.0016646 0.00117621 0.000229682 0.000114841 0.00114625 0.000666612 0.000134852 0 0.00117621 0 0.000114841 0 0.000666612 0 0.0016646 0.00117621 0.00958758 0.00315629 0.00114625 0.000666612 0.00191499 0.00127672 0.00117621 0 0.00315629 0 0.000666612 0 0.00127672 0 0.000229682 0.000114841 0.00114625 0.000666612 0.00018966 9.48298e-05 0.000379664 0.000189832 0.000114841 0 0.000666612 0 9.48298e-05 0 0.000189832 0 0.00114625 0.000666612 0.00191499 0.00127672 0.000379664 0.000189832 0.000569669 0.000284835 0.000666612 0 0.00127672 0 0.000189832 0 0.000284835 0 0 0.00315629 0 0.00117621 0 0.00127672 0 0.000666612 0.00315629 0.00958758 0.00117621 0.0016646 0.00127672 0.00191499 0.000666612 0.00114625 0 0.00117621 0 0.000134852 0 0.000666612 0 0.000114841 0.00117621 0.0016646 0.000134852 0.000269703 0.000666612 0.00114625 0.000114841 0.000229682 0 0.00127672 0 0.000666612 0 0.000284835 0 0.000189832 0.00127672 0.00191499 0.000666612 0.00114625 0.000284835 0.000569669 0.000189832 0.000379664 0 0.000666612 0 0.000114841 0 0.000189832 0 9.48298e-05 0.000666612 0.00114625 0.000114841 0.000229682 0.000189832 0.000379664 9.48298e-05 0.00018966 0.00958758 0.00434445 0.0016646 0.00160702 0.00191499 0.00222983 0.00114625 0.00129016 0.00434445 0.00266142 0.00160702 0.00201658 0.00222983 0.00203627 0.00129016 0.00151504 0.0016646 0.00160702 0.000269703 0.000535291 0.00114625 0.00129016 0.000229682 0.000498462 0.00160702 0.00201658 0.000535291 0.000967573 0.00129016 0.00151504 0.000498462 0.000710152 0.00191499 0.00222983 0.00114625 0.00129016 0.000569669 0.000755004 0.000379664 0.0005381 0.00222983 0.00203627 0.00129016 0.00151504 0.000755004 0.000940339 0.0005381 0.000696535 0.00114625 0.00129016 0.000229682 0.000498462 0.000379664 0.0005381 0.00018966 0.000321195 0.00129016 0.00151504 0.000498462 0.000710152 0.0005381 0.000696535 0.000321195 0.000452731 0.000269703 0.000535291 0.000134852 0.00020242 0.000229682 0.000498462 0.000114841 0.000174223 0.000535291 0.000967573 0.00020242 0.000483787 0.000498462 0.000710152 0.000174223 0.000355076 0.000134852 0.00020242 0 0 0.000114841 0.000174223 0 0 0.00020242 0.000483787 0 0 0.000174223 0.000355076 0 0 0.000229682 0.000498462 0.000114841 0.000174223 0.00018966 0.000321195 9.48298e-05 0.000160598 0.000498462 0.000710152 0.000174223 0.000355076 0.000321195 0.000452731 0.000160598 0.000226366 0.000114841 0.000174223 0 0 9.48298e-05 0.000160598 0 0 0.000174223 0.000355076 0 0 0.000160598 0.000226366 0 0 0.00266142 0.00434445 0.00201658 0.00287155 0.00203627 0.00222983 0.00151504 0.00177363 0.00434445 0.00958758 0.00287155 0.0021825 0.00222983 0.00191499 0.00177363 0.00151278 0.00201658 0.00287155 0.000967573 0.000915147 0.00151504 0.00177363 0.000710152 0.000684227 0.00287155 0.0021825 0.000915147 0.00086272 0.00177363 0.00151278 0.000684227 0.000658302 0.00203627 0.00222983 0.00151504 0.00177363 0.000940339 0.000755004 0.000696535 0.000604156 0.00222983 0.00191499 0.00177363 0.00151278 0.000755004 0.000569669 0.000604156 0.000511776 0.00151504 0.00177363 0.000710152 0.000684227 0.000696535 0.000604156 0.000452731 0.000453307 0.00177363 0.00151278 0.000684227 0.000658302 0.000604156 0.000511776 0.000453307 0.000453883 0.00958758 0.00315629 0.0021825 0.00136943 0.00191499 0.00127672 0.00151278 0.000837657 0.00315629 0 0.00136943 0 0.00127672 0 0.000837657 0 0.0021825 0.00136943 0.00086272 0.00043136 0.00151278 0.000837657 0.000658302 0.000329151 0.00136943 0 0.00043136 0 0.000837657 0 0.000329151 0 0.00191499 0.00127672 0.00151278 0.000837657 0.000569669 0.000284835 0.000511776 0.000255888 0.00127672 0 0.000837657 0 0.000284835 0 0.000255888 0 0.00151278 0.000837657 0.000658302 0.000329151 0.000511776 0.000255888 0.000453883 0.000226942 0.000837657 0 0.000329151 0 0.000255888 0 0.000226942 0 
SCALARS y_displacement double 1
LOOKUP_TABLE default