# vtk DataFile Version 3.0
#This file was generated by the deal.II library on 2017/1/10 at 15:48:55
ASCII
DATASET UNSTRUCTURED_GRID

POINTS 6808 double
-1 0.5 0
-0.978723 0.478723 0
-0.970149 0.5 0
-0.964976 0.485465 0
-0.970149 0.5 0
-0.964976 0.485465 0
-0.940299 0.5 0
-0.945882 0.477585 0
-0.978723 0.478723 0
-0.957447 0.457447 0
-0.964976 0.485465 0
-0.945882 0.477585 0
-0.910448 0.5 0
-0.940299 0.5 0
-0.919731 0.466897 0
-0.945882 0.477585 0
0.12 -0.5 0
0.15 -0.5 0
0.119014 -0.4708 0
0.15 -0.471429 0
0.11755 -0.441479 0
0.119014 -0.4708 0
0.15 -0.442857 0
0.15 -0.471429 0
0.117242 -0.412206 0
0.11755 -0.441479 0
0.15 -0.414286 0
0.15 -0.442857 0
0.118129 -0.383064 0
0.117242 -0.412206 0
0.15 -0.385714 0
0.15 -0.414286 0
0.12021 -0.354337 0
0.118129 -0.383064 0
0.15 -0.357143 0
0.15 -0.385714 0
0.121793 -0.32584 0
0.12021 -0.354337 0
0.15 -0.328571 0
0.15 -0.357143 0
0.122717 -0.296869 0
0.121793 -0.32584 0
0.15 -0.3 0
0.15 -0.328571 0
0.123759 -0.266752 0
0.122717 -0.296869 0
0.153091 -0.267708 0
0.15 -0.3 0
0.18456 -0.26795 0
0.153091 -0.267708 0
0.183333 -0.3 0
0.15 -0.3 0
0.216606 -0.268111 0
0.18456 -0.26795 0
0.216667 -0.3 0
0.183333 -0.3 0
0.24835 -0.26841 0
0.216606 -0.268111 0
0.25 -0.3 0
0.216667 -0.3 0
0.278782 -0.268564 0
0.24835 -0.26841 0
0.279437 -0.298917 0
0.25 -0.3 0
0.279638 -0.328111 0
0.279437 -0.298917 0
0.25 -0.328571 0
0.25 -0.3 0
0.27971 -0.356801 0
0.279638 -0.328111 0
0.25 -0.357143 0
0.25 -0.328571 0
0.279677 -0.385395 0
0.27971 -0.356801 0
0.25 -0.385714 0
0.25 -0.357143 0
0.279641 -0.413938 0
0.279677 -0.385395 0
0.25 -0.414286 0
0.25 -0.385714 0
0.279666 -0.442534 0
0.279641 -0.413938 0
0.25 -0.442857 0
0.25 -0.414286 0
0.279811 -0.471266 0
0.279666 -0.442534 0
0.25 -0.471429 0
0.25 -0.442857 0
0.28 -0.5 0
0.279811 -0.471266 0
0.25 -0.5 0
0.25 -0.471429 0
0.970149 0.5 0
0.970096 0.46978 0
1 0.5 0
1 0.469697 0
0.940299 0.5 0
0.940231 0.46984 0
0.970149 0.5 0
0.970096 0.46978 0
0.910448 0.5 0
0.910371 0.469856 0
0.940299 0.5 0
0.940231 0.46984 0
0.880597 0.5 0
0.880527 0.469909 0
0.910448 0.5 0
0.910371 0.469856 0
0.850746 0.5 0
0.850684 0.469926 0
0.880597 0.5 0
0.880527 0.469909 0
0.820896 0.5 0
0.820842 0.469978 0
0.850746 0.5 0
0.850684 0.469926 0
0.791045 0.5 0
0.791001 0.470016 0
0.820896 0.5 0
0.820842 0.469978 0
0.761194 0.5 0
0.761159 0.470055 0
0.791045 0.5 0
0.791001 0.470016 0
0.731343 0.5 0
0.731316 0.470091 0
0.761194 0.5 0
0.761159 0.470055 0
0.701493 0.5 0
0.701472 0.470118 0
0.731343 0.5 0
0.731316 0.470091 0
0.671642 0.5 0
0.671627 0.470134 0
0.701493 0.5 0
0.701472 0.470118 0
0.641791 0.5 0
0.64178 0.470142 0
0.671642 0.5 0
0.671627 0.470134 0
0.641791 0.5 0
0.61194 0.5 0
0.64178 0.470142 0
0.611934 0.470065 0
0.58209 0.5 0
0.582089 0.470002 0
0.61194 0.5 0
0.611934 0.470065 0
0.552239 0.5 0
0.552248 0.469853 0
0.58209 0.5 0
0.582089 0.470002 0
0.522388 0.5 0
0.522413 0.469718 0
0.552239 0.5 0
0.552248 0.469853 0
0.492537 0.5 0
0.492577 0.469656 0
0.522388 0.5 0
0.522413 0.469718 0
0.462687 0.5 0
0.462743 0.469571 0
0.492537 0.5 0
0.492577 0.469656 0
0.432836 0.5 0
0.432895 0.46963 0
0.462687 0.5 0
0.462743 0.469571 0
0.402985 0.5 0
0.403046 0.469669 0
0.432836 0.5 0
0.432895 0.46963 0
0.373134 0.5 0
0.373191 0.469745 0
0.402985 0.5 0
0.403046 0.469669 0
0.343284 0.5 0
0.343335 0.469723 0
0.373134 0.5 0
0.373191 0.469745 0
0.313433 0.5 0
0.313478 0.469741 0
0.343284 0.5 0
0.343335 0.469723 0
0.283582 0.5 0
0.283622 0.469783 0
0.313433 0.5 0
0.313478 0.469741 0
0.253731 0.5 0
0.253768 0.469742 0
0.283582 0.5 0
0.283622 0.469783 0
0.223881 0.5 0
0.223918 0.469737 0
0.253731 0.5 0
0.253768 0.469742 0
0.19403 0.5 0
0.194064 0.46981 0
0.223881 0.5 0
0.223918 0.469737 0
0.164179 0.5 0
0.16421 0.469881 0
0.19403 0.5 0
0.194064 0.46981 0
0.134328 0.5 0
0.134355 0.46994 0
0.164179 0.5 0
0.16421 0.469881 0
0.104478 0.5 0
0.1045 0.469997 0
0.134328 0.5 0
0.134355 0.46994 0
0.074627 0.5 0
0.074645 0.470051 0
0.104478 0.5 0
0.1045 0.469997 0
0.044776 0.5 0
0.04479 0.470093 0
0.074627 0.5 0
0.074645 0.470051 0
0.014925 0.5 0
0.014935 0.47012 0
0.044776 0.5 0
0.04479 0.470093 0
-0.014925 0.5 0
-0.014918 0.470135 0
0.014925 0.5 0
0.014935 0.47012 0
-0.044776 0.5 0
-0.044771 0.470143 0
-0.014925 0.5 0
-0.014918 0.470135 0
-0.074627 0.5 0
-0.074623 0.470146 0
-0.044776 0.5 0
-0.044771 0.470143 0
-0.104478 0.5 0
-0.104496 0.469979 0
-0.074627 0.5 0
-0.074623 0.470146 0
-0.134328 0.5 0
-0.134359 0.469935 0
-0.104478 0.5 0
-0.104496 0.469979 0
-0.164179 0.5 0
-0.164225 0.469839 0
-0.134328 0.5 0
-0.134359 0.469935 0
-0.164179 0.5 0
-0.19403 0.5 0
-0.164225 0.469839 0
-0.194083 0.469797 0
-0.223881 0.5 0
-0.22394 0.469753 0
-0.19403 0.5 0
-0.194083 0.469797 0
-0.253731 0.5 0
-0.253798 0.469819 0
-0.223881 0.5 0
-0.22394 0.469753 0
-0.283582 0.5 0
-0.283647 0.470019 0
-0.253731 0.5 0
-0.253798 0.469819 0
-0.313433 0.5 0
-0.313491 0.470151 0
-0.283582 0.5 0
-0.283647 0.470019 0
-0.343284 0.5 0
-0.343348 0.470381 0
-0.313433 0.5 0
-0.313491 0.470151 0
-0.343284 0.5 0
-0.373134 0.5 0
-0.343348 0.470381 0
-0.373195 0.470395 0
-0.373134 0.5 0
-0.402985 0.5 0
-0.373195 0.470395 0
-0.403049 0.470404 0
-0.432836 0.5 0
-0.432937 0.470297 0
-0.402985 0.5 0
-0.403049 0.470404 0
-0.462687 0.5 0
-0.462848 0.469995 0
-0.432836 0.5 0
-0.432937 0.470297 0
-0.492537 0.5 0
-0.492807 0.469765 0
-0.462687 0.5 0
-0.462848 0.469995 0
-0.522388 0.5 0
-0.52276 0.46958 0
-0.492537 0.5 0
-0.492807 0.469765 0
-0.552239 0.5 0
-0.55273 0.469652 0
-0.522388 0.5 0
-0.52276 0.46958 0
-0.58209 0.5 0
-0.582662 0.469731 0
-0.552239 0.5 0
-0.55273 0.469652 0
-0.61194 0.5 0
-0.612594 0.469999 0
-0.58209 0.5 0
-0.582662 0.469731 0
-0.641791 0.5 0
-0.642647 0.470419 0
-0.61194 0.5 0
-0.612594 0.469999 0
-0.671642 0.5 0
-0.672638 0.470543 0
-0.641791 0.5 0
-0.642647 0.470419 0
-0.701493 0.5 0
-0.702968 0.4698 0
-0.671642 0.5 0
-0.672638 0.470543 0
-0.701493 0.5 0
-0.731343 0.5 0
-0.702968 0.4698 0
-0.733232 0.468149 0
-0.731343 0.5 0
-0.761194 0.5 0
-0.733232 0.468149 0
-0.765399 0.466448 0
-0.791045 0.5 0
-0.795702 0.469563 0
-0.761194 0.5 0
-0.765399 0.466448 0
-0.820896 0.5 0
-0.822797 0.47207 0
-0.791045 0.5 0
-0.795702 0.469563 0
-0.850746 0.5 0
-0.850723 0.467038 0
-0.820896 0.5 0
-0.822797 0.47207 0
-0.880597 0.5 0
-0.887028 0.454038 0
-0.850746 0.5 0
-0.850723 0.467038 0
-0.910448 0.5 0
-0.919731 0.466897 0
-0.880597 0.5 0
-0.887028 0.454038 0
0.31 -0.5 0
0.309694 -0.471123 0
0.28 -0.5 0
0.279811 -0.471266 0
0.31 -0.5 0
0.34 -0.5 0
0.309694 -0.471123 0
0.339686 -0.471033 0
0.37 -0.5 0
0.369721 -0.471055 0
0.34 -0.5 0
0.339686 -0.471033 0
0.37 -0.5 0
0.4 -0.5 0
0.369721 -0.471055 0
0.399756 -0.470957 0
0.4 -0.5 0
0.43 -0.5 0
0.399756 -0.470957 0
0.429805 -0.470822 0
0.43 -0.5 0
0.46 -0.5 0
0.429805 -0.470822 0
0.459835 -0.470712 0
0.46 -0.5 0
0.49 -0.5 0
0.459835 -0.470712 0
0.489873 -0.470554 0
0.49 -0.5 0
0.52 -0.5 0
0.489873 -0.470554 0
0.519906 -0.470379 0
0.52 -0.5 0
0.55 -0.5 0
0.519906 -0.470379 0
0.54993 -0.470248 0
0.55 -0.5 0
0.58 -0.5 0
0.54993 -0.470248 0
0.579948 -0.470155 0
0.58 -0.5 0
0.61 -0.5 0
0.579948 -0.470155 0
0.609962 -0.470091 0
0.61 -0.5 0
0.64 -0.5 0
0.609962 -0.470091 0
0.639972 -0.47005 0
0.64 -0.5 0
0.67 -0.5 0
0.639972 -0.47005 0
0.66998 -0.470026 0
0.67 -0.5 0
0.7 -0.5 0
0.66998 -0.470026 0
0.699986 -0.470013 0
0.7 -0.5 0
0.73 -0.5 0
0.699986 -0.470013 0
0.72999 -0.470006 0
0.73 -0.5 0
0.76 -0.5 0
0.72999 -0.470006 0
0.759994 -0.470003 0
0.76 -0.5 0
0.79 -0.5 0
0.759994 -0.470003 0
0.78998 -0.469916 0
0.79 -0.5 0
0.82 -0.5 0
0.78998 -0.469916 0
0.819956 -0.469877 0
0.82 -0.5 0
0.85 -0.5 0
0.819956 -0.469877 0
0.849929 -0.469833 0
0.85 -0.5 0
0.88 -0.5 0
0.849929 -0.469833 0
0.879924 -0.469805 0
0.88 -0.5 0
0.91 -0.5 0
0.879924 -0.469805 0
0.909913 -0.469792 0
0.91 -0.5 0
0.94 -0.5 0
0.909913 -0.469792 0
0.939922 -0.469775 0
0.94 -0.5 0
0.97 -0.5 0
0.939922 -0.469775 0
0.969956 -0.46974 0
0.97 -0.5 0
1 -0.5 0
0.969956 -0.46974 0
1 -0.469697 0
-0.893617 0.393617 0
-0.87234 0.37234 0
-0.867787 0.420844 0
-0.847479 0.396796 0
-0.87234 0.37234 0
-0.851064 0.351064 0
-0.847479 0.396796 0
-0.826567 0.37451 0
-0.829787 0.329787 0
-0.806205 0.352141 0
-0.851064 0.351064 0
-0.826567 0.37451 0
-0.808511 0.308511 0
-0.786305 0.329477 0
-0.829787 0.329787 0
-0.806205 0.352141 0
-0.765957 0.265957 0
-0.744681 0.244681 0
-0.745195 0.286345 0
-0.723868 0.265704 0
-0.744681 0.244681 0
-0.723404 0.223404 0
-0.723868 0.265704 0
-0.702394 0.245107 0
-0.702128 0.202128 0
-0.680976 0.2243 0
-0.723404 0.223404 0
-0.702394 0.245107 0
-0.702128 0.202128 0
-0.680851 0.180851 0
-0.680976 0.2243 0
-0.659597 0.203254 0
-0.680851 0.180851 0
-0.659574 0.159574 0
-0.659597 0.203254 0
-0.638233 0.18203 0
-0.638298 0.138298 0
-0.616915 0.16063 0
-0.659574 0.159574 0
-0.638233 0.18203 0
-0.617021 0.117021 0
-0.595665 0.139192 0
-0.638298 0.138298 0
-0.616915 0.16063 0
-0.617021 0.117021 0
-0.595745 0.095745 0
-0.595665 0.139192 0
-0.574431 0.117764 0
-0.595745 0.095745 0
-0.574468 0.074468 0
-0.574431 0.117764 0
-0.553204 0.096309 0
-0.553191 0.053191 0
-0.53184 0.075023 0
-0.574468 0.074468 0
-0.553204 0.096309 0
-0.553191 0.053191 0
-0.531915 0.031915 0
-0.53184 0.075023 0
-0.510492 0.053733 0
-0.531915 0.031915 0
-0.510638 0.010638 0
-0.510492 0.053733 0
-0.489127 0.032461 0
-0.510638 0.010638 0
-0.489362 -0.010638 0
-0.489127 0.032461 0
-0.467791 0.011178 0
-0.489362 -0.010638 0
-0.468085 -0.031915 0
-0.467791 0.011178 0
-0.446536 -0.010172 0
-0.446809 -0.053191 0
-0.42524 -0.031466 0
-0.468085 -0.031915 0
-0.446536 -0.010172 0
-0.425532 -0.074468 0
-0.404012 -0.052824 0
-0.446809 -0.053191 0
-0.42524 -0.031466 0
-0.425532 -0.074468 0
-0.404255 -0.095745 0
-0.404012 -0.052824 0
-0.382783 -0.074175 0
-0.404255 -0.095745 0
-0.382979 -0.117021 0
-0.382783 -0.074175 0
-0.361545 -0.095511 0
-0.382979 -0.117021 0
-0.361702 -0.138298 0
-0.361545 -0.095511 0
-0.340288 -0.116831 0
-0.361702 -0.138298 0
-0.340426 -0.159574 0
-0.340288 -0.116831 0
-0.319034 -0.138159 0
-0.340426 -0.159574 0
-0.319149 -0.180851 0
[...]
POINT_DATA 6808
VECTORS momentum double
-8.75913e-05 -0.000276973 0
0.00115875 -0.000938167 0
0.000775015 -0.000650253 0
0.000126421 -0.00159014 0
0.000775015 -0.000650253 0
0.000126421 -0.00159014 0
0.000396871 -0.000152776 0
0.00272553 -0.00369305 0
0.00115875 -0.000938167 0
0.000895677 -0.00241604 0
0.000126421 -0.00159014 0
0.00272553 -0.00369305 0
-0.000390237 -0.00262485 0
0.000396871 -0.000152776 0
0.00205946 -0.00474428 0
0.00272553 -0.00369305 0
-5.12373e-05 -0.000337847 0
9.30961e-06 -0.000325495 0
-1.14451e-05 -0.000408256 0
1.43869e-05 -0.000411868 0
-7.92287e-05 -3.67777e-05 0
-1.14451e-05 -0.000408256 0
2.28903e-05 -2.78757e-05 0
1.43869e-05 -0.000411868 0
3.4949e-05 -0.000164932 0
-7.92287e-05 -3.67777e-05 0
-1.34715e-06 -0.000190897 0
2.28903e-05 -2.78757e-05 0
2.98591e-05 1.68129e-05 0
3.4949e-05 -0.000164932 0
-1.94119e-05 6.88025e-05 0
-1.34715e-06 -0.000190897 0
4.8661e-05 -7.47538e-06 0
2.98591e-05 1.68129e-05 0
2.91454e-05 -0.00011305 0
-1.94119e-05 6.88025e-05 0
-1.38684e-05 6.52922e-05 0
4.8661e-05 -7.47538e-06 0
-8.86724e-05 0.000285726 0
2.91454e-05 -0.00011305 0
0.000190777 4.56895e-05 0
-1.38684e-05 6.52922e-05 0
0.000327376 -0.000113462 0
-8.86724e-05 0.000285726 0
4.88686e-07 -7.1771e-06 0
0.000190777 4.56895e-05 0
2.22108e-05 -0.000207088 0
0.000327376 -0.000113462 0
9.52454e-06 -0.000462063 0
2.22108e-05 -0.000207088 0
0.000312411 -0.000479396 0
0.000327376 -0.000113462 0
2.5437e-06 -0.000446911 0
9.52454e-06 -0.000462063 0
-0.000326581 -0.000459785 0
0.000312411 -0.000479396 0
-3.71775e-05 -0.000204948 0
2.5437e-06 -0.000446911 0
-0.000304172 -0.000106859 0
-0.000326581 -0.000459785 0
-1.25152e-05 -1.30367e-05 0
-3.71775e-05 -0.000204948 0
-0.000173243 3.09668e-05 0
-0.000304172 -0.000106859 0
2.80811e-05 4.70524e-05 0
-0.000173243 3.09668e-05 0
7.85345e-05 0.000273711 0
-0.000304172 -0.000106859 0
-3.16247e-05 -2.87558e-05 0
2.80811e-05 4.70524e-05 0
-3.5129e-05 -0.00013199 0
7.85345e-05 0.000273711 0
1.41944e-05 3.98817e-05 0
-3.16247e-05 -2.87558e-05 0
1.54629e-05 9.76916e-05 0
-3.5129e-05 -0.00013199 0
-9.54878e-06 -0.000116759 0
1.41944e-05 3.98817e-05 0
-7.7376e-06 -0.000147133 0
1.54629e-05 9.76916e-05 0
5.3813e-06 6.28322e-06 0
-9.54878e-06 -0.000116759 0
4.0521e-06 2.11766e-05 0
-7.7376e-06 -0.000147133 0
-4.56121e-06 -0.000393358 0
5.3813e-06 6.28322e-06 0
-2.57105e-06 -0.000402514 0
4.0521e-06 2.11766e-05 0
7.72688e-06 -0.000327414 0
-4.56121e-06 -0.000393358 0
2.48519e-06 -0.000318853 0
-2.57105e-06 -0.000402514 0
-2.06529e-06 -0.000501755 0
-1.57099e-06 -0.00059723 0
-2.28516e-06 -0.000501684 0
-7.38371e-07 -0.000596565 0
-1.61074e-06 -0.000502422 0
-1.38045e-06 -0.000597844 0
-2.06529e-06 -0.000501755 0
-1.57099e-06 -0.00059723 0
-1.66799e-06 -0.000502196 0
-3.54152e-07 -0.000597959 0
-1.61074e-06 -0.000502422 0
-1.38045e-06 -0.000597844 0
-1.6733e-06 -0.000501783 0
-3.45205e-07 -0.000597985 0
-1.66799e-06 -0.000502196 0
-3.54152e-07 -0.000597959 0
-1.84772e-06 -0.000501353 0
-1.4587e-07 -0.000597737 0
-1.6733e-06 -0.000501783 0
-3.45205e-07 -0.000597985 0
-1.89254e-06 -0.000500689 0
-1.4342e-07 -0.000597502 0
-1.84772e-06 -0.000501353 0
-1.4587e-07 -0.000597737 0
-1.65099e-06 -0.000500393 0
-8.54179e-08 -0.000597104 0
-1.89254e-06 -0.000500689 0
-1.4342e-07 -0.000597502 0
-1.67498e-06 -0.000499741 0
2.72994e-07 -0.000596964 0
-1.65099e-06 -0.000500393 0
-8.54179e-08 -0.000597104 0
-1.0099e-06 -0.000499218 0
-8.99076e-08 -0.00059678 0
-1.67498e-06 -0.000499741 0
2.72994e-07 -0.000596964 0
-6.57358e-07 -0.000499291 0
4.60384e-07 -0.000596597 0
-1.0099e-06 -0.000499218 0
-8.99076e-08 -0.00059678 0
4.99513e-07 -0.000498498 0
1.58255e-06 -0.000596325 0
-6.57358e-07 -0.000499291 0
4.60384e-07 -0.000596597 0
2.26337e-06 -0.000498219 0
1.15409e-06 -0.000596486 0
4.99513e-07 -0.000498498 0
1.58255e-06 -0.000596325 0
2.26337e-06 -0.000498219 0
3.08363e-06 -0.000498397 0
1.15409e-06 -0.000596486 0
1.22665e-06 -0.000596438 0
4.5802e-06 -0.000498686 0
3.43118e-07 -0.000597054 0
3.08363e-06 -0.000498397 0
1.22665e-06 -0.000596438 0
4.5537e-06 -0.000500507 0
-9.51001e-07 -0.000596903 0
4.5802e-06 -0.000498686 0
3.43118e-07 -0.000597054 0
2.7847e-06 -0.000501839 0
-1.0916e-08 -0.000595887 0
4.5537e-06 -0.000500507 0
-9.51001e-07 -0.000596903 0
3.12188e-06 -0.000502256 0
6.77617e-07 -0.000595238 0
2.7847e-06 -0.000501839 0
-1.0916e-08 -0.000595887 0
2.43952e-06 -0.00050317 0
6.14645e-07 -0.000595427 0
3.12188e-06 -0.000502256 0
6.77617e-07 -0.000595238 0
-3.23307e-07 -0.000503791 0
1.06665e-06 -0.000595811 0
2.43952e-06 -0.00050317 0
6.14645e-07 -0.000595427 0
-1.738e-06 -0.00050286 0
1.13544e-06 -0.000594835 0
-3.23307e-07 -0.000503791 0
1.06665e-06 -0.000595811 0
-1.65882e-06 -0.000502084 0
-2.71766e-07 -0.000594807 0
-1.738e-06 -0.00050286 0
1.13544e-06 -0.000594835 0
-5.31135e-07 -0.000502289 0
-1.01458e-06 -0.000593476 0
-1.65882e-06 -0.000502084 0
-2.71766e-07 -0.000594807 0
-9.49331e-07 -0.000502611 0
-3.60179e-07 -0.000594453 0
-5.31135e-07 -0.000502289 0
-1.01458e-06 -0.000593476 0
-1.0809e-06 -0.000502082 0
-2.38202e-07 -0.000594565 0
-9.49331e-07 -0.000502611 0
-3.60179e-07 -0.000594453 0
3.88353e-07 -0.000501947 0
-1.9248e-07 -0.000593831 0
-1.0809e-06 -0.000502082 0
-2.38202e-07 -0.000594565 0
-4.2405e-07 -0.000502158 0
-2.00142e-07 -0.000594516 0
3.88353e-07 -0.000501947 0
-1.9248e-07 -0.000593831 0
-2.38039e-06 -0.000502335 0
-1.68863e-07 -0.000594723 0
-4.2405e-07 -0.000502158 0
-2.00142e-07 -0.000594516 0
-3.01361e-06 -0.000501332 0
6.98784e-08 -0.000594827 0
-2.38039e-06 -0.000502335 0
-1.68863e-07 -0.000594723 0
-2.72729e-06 -0.000500326 0
-6.50609e-07 -0.000595369 0
-3.01361e-06 -0.000501332 0
6.98784e-08 -0.000594827 0
-2.52721e-06 -0.000500108 0
-8.69761e-07 -0.000595523 0
-2.72729e-06 -0.000500326 0
-6.50609e-07 -0.000595369 0
-2.3014e-06 -0.000499563 0
-3.87784e-07 -0.000595643 0
-2.52721e-06 -0.000500108 0
-8.69761e-07 -0.000595523 0
-1.96292e-06 -0.000498839 0
-1.58969e-07 -0.000595909 0
-2.3014e-06 -0.000499563 0
-3.87784e-07 -0.000595643 0
-1.01271e-06 -0.00049831 0
-4.84323e-07 -0.000595825 0
-1.96292e-06 -0.000498839 0
-1.58969e-07 -0.000595909 0
-6.58675e-07 -0.000498399 0
3.24008e-07 -0.000596217 0
-1.01271e-06 -0.00049831 0
-4.84323e-07 -0.000595825 0
1.48298e-06 -0.000497635 0
1.92825e-06 -0.000595533 0
-6.58675e-07 -0.000498399 0
3.24008e-07 -0.000596217 0
4.60127e-06 -0.000498178 0
1.34352e-06 -0.000595892 0
1.48298e-06 -0.000497635 0
1.92825e-06 -0.000595533 0
4.23059e-06 -0.000499308 0
8.42332e-07 -0.000594313 0
4.60127e-06 -0.000498178 0
1.34352e-06 -0.000595892 0
3.54228e-06 -0.000500187 0
7.67034e-07 -0.000593757 0
4.23059e-06 -0.000499308 0
8.42332e-07 -0.000594313 0
2.82387e-06 -0.000501185 0
-1.80744e-07 -0.000592593 0
3.54228e-06 -0.000500187 0
7.67034e-07 -0.000593757 0
2.82387e-06 -0.000501185 0
5.45468e-07 -0.000502441 0
-1.80744e-07 -0.000592593 0
-1.99145e-06 -0.000591339 0
-2.81634e-06 -0.00050286 0
-2.74159e-06 -0.000593081 0
5.45468e-07 -0.000502441 0
-1.99145e-06 -0.000591339 0
-6.21613e-06 -0.000501949 0
-7.30152e-07 -0.000594982 0
-2.81634e-06 -0.00050286 0
-2.74159e-06 -0.000593081 0
-7.33894e-06 -0.000499656 0
-6.29753e-07 -0.000596637 0
-6.21613e-06 -0.000501949 0
-7.30152e-07 -0.000594982 0
-6.25806e-06 -0.00049811 0
-1.38224e-06 -0.000598629 0
-7.33894e-06 -0.000499656 0
-6.29753e-07 -0.000596637 0
-3.55836e-06 -0.000496941 0
1.18721e-06 -0.000601844 0
-6.25806e-06 -0.00049811 0
-1.38224e-06 -0.000598629 0
-3.55836e-06 -0.000496941 0
5.54391e-07 -0.000494575 0
1.18721e-06 -0.000601844 0
2.96676e-06 -0.000601517 0
5.54391e-07 -0.000494575 0
7.87619e-06 -0.000494981 0
2.96676e-06 -0.000601517 0
4.79816e-06 -0.000599775 0
1.18516e-05 -0.000497407 0
4.43698e-06 -0.000597961 0
7.87619e-06 -0.000494981 0
4.79816e-06 -0.000599775 0
1.32604e-05 -0.000499034 0
4.27961e-06 -0.000597692 0
1.18516e-05 -0.000497407 0
4.43698e-06 -0.000597961 0
4.59608e-06 -0.000499318 0
1.69254e-07 -0.000602644 0
1.32604e-05 -0.000499034 0
4.27961e-06 -0.000597692 0
6.16059e-06 -0.000500226 0
-9.76513e-06 -0.000605957 0
4.59608e-06 -0.000499318 0
1.69254e-07 -0.000602644 0
-1.79979e-05 -0.000514623 0
-1.32235e-05 -0.000594729 0
6.16059e-06 -0.000500226 0
-9.76513e-06 -0.000605957 0
-1.43501e-05 -0.000514225 0
-5.35863e-05 -0.000584559 0
-1.79979e-05 -0.000514623 0
-1.32235e-05 -0.000594729 0
-0.000170642 -0.000547748 0
-7.86711e-05 -0.000546912 0
-1.43501e-05 -0.000514225 0
-5.35863e-05 -0.000584559 0
-0.000346815 -0.000468191 0
-0.000483362 -0.000543745 0
-0.000170642 -0.000547748 0
-7.86711e-05 -0.000546912 0
-0.000899958 -0.000793637 0
-0.00194354 -0.00108645 0
-0.000346815 -0.000468191 0
-0.000483362 -0.000543745 0
-0.00102941 -0.00114665 0
-0.00241879 -0.0037444 0
-0.000899958 -0.000793637 0
-0.00194354 -0.00108645 0
-0.00102941 -0.00114665 0
-0.00108457 -0.00161486 0
-0.00241879 -0.0037444 0
-0.00194994 -0.00644982 0
-0.00108457 -0.00161486 0
-0.000379282 -0.000791164 0
-0.00194994 -0.00644982 0
0.000755617 -0.0128175 0
0.000671747 -0.00116297 0
0.000894762 -0.00478356 0
-0.000379282 -0.000791164 0
0.000755617 -0.0128175 0
9.44743e-05 -0.000591669 0
-0.000870184 -0.00558657 0
0.000671747 -0.00116297 0
0.000894762 -0.00478356 0
0.000176387 -0.00208143 0
-4.08602e-05 -0.00672432 0
9.44743e-05 -0.000591669 0
-0.000870184 -0.00558657 0
0.000172006 0.000315107 0
0.000459059 -0.0163822 0
0.000176387 -0.00208143 0
-4.08602e-05 -0.00672432 0
-0.000390237 -0.00262485 0
0.00205946 -0.00474428 0
0.000172006 0.000315107 0
0.000459059 -0.0163822 0
6.3916e-06 -0.000333067 0
-5.62671e-07 -0.00039387 0
7.72688e-06 -0.000327414 0
-4.56121e-06 -0.000393358 0
6.3916e-06 -0.000333067 0
2.88884e-06 -0.000335292 0
-5.62671e-07 -0.00039387 0
1.79329e-06 -0.000393655 0
1.32313e-06 -0.000334636 0
1.51016e-06 -0.000394028 0
2.88884e-06 -0.000335292 0
1.79329e-06 -0.000393655 0
1.32313e-06 -0.000334636 0
2.55696e-06 -0.000335134 0
1.51016e-06 -0.000394028 0
2.03169e-08 -0.000391967 0
2.55696e-06 -0.000335134 0
3.44195e-06 -0.000336122 0
2.03169e-08 -0.000391967 0
6.39162e-07 -0.000391329 0
3.44195e-06 -0.000336122 0
3.29184e-06 -0.000336422 0
6.39162e-07 -0.000391329 0
1.8785e-06 -0.000390461 0
3.29184e-06 -0.000336422 0
3.79444e-06 -0.000335746 0
1.8785e-06 -0.000390461 0
1.04978e-06 -0.000390991 0
3.79444e-06 -0.000335746 0
4.05371e-06 -0.000336823 0
1.04978e-06 -0.000390991 0
-3.80547e-07 -0.000391131 0
4.05371e-06 -0.000336823 0
3.1867e-06 -0.000338312 0
-3.80547e-07 -0.000391131 0
-3.1962e-07 -0.000391293 0
3.1867e-06 -0.000338312 0
2.19482e-06 -0.000339247 0
-3.1962e-07 -0.000391293 0
-1.4468e-07 -0.000391639 0
2.19482e-06 -0.000339247 0
1.54615e-06 -0.000339857 0
-1.4468e-07 -0.000391639 0
-1.35776e-07 -0.000391988 0
1.54615e-06 -0.000339857 0
9.78121e-07 -0.000340345 0
-1.35776e-07 -0.000391988 0
-4.11445e-08 -0.000392136 0
9.78121e-07 -0.000340345 0
6.60801e-07 -0.000340529 0
-4.11445e-08 -0.000392136 0
1.48444e-07 -0.000392299 0
6.60801e-07 -0.000340529 0
4.48064e-07 -0.000340618 0
1.48444e-07 -0.000392299 0
2.84389e-07 -0.000392361 0
4.48064e-07 -0.000340618 0
6.7227e-07 -0.000340573 0
2.84389e-07 -0.000392361 0
5.29249e-07 -0.000392282 0
6.7227e-07 -0.000340573 0
1.39581e-06 -0.000340612 0
5.29249e-07 -0.000392282 0
2.01483e-07 -0.000392564 0
1.39581e-06 -0.000340612 0
1.4799e-06 -0.00034103 0
2.01483e-07 -0.000392564 0
-3.73776e-07 -0.000392654 0
1.4799e-06 -0.00034103 0
1.61152e-06 -0.000341687 0
-3.73776e-07 -0.000392654 0
-2.31086e-08 -0.000393032 0
1.61152e-06 -0.000341687 0
1.63857e-06 -0.000342273 0
-2.31086e-08 -0.000393032 0
2.84903e-07 -0.000393455 0
1.63857e-06 -0.000342273 0
1.10942e-06 -0.000342693 0
2.84903e-07 -0.000393455 0
3.48218e-07 -0.000393811 0
1.10942e-06 -0.000342693 0
7.99398e-07 -0.000342809 0
3.48218e-07 -0.000393811 0
2.66332e-07 -0.000394165 0
7.99398e-07 -0.000342809 0
6.00347e-07 -0.000343044 0
2.66332e-07 -0.000394165 0
3.7993e-07 -0.000393968 0
6.00347e-07 -0.000343044 0
4.36254e-07 -0.00034281 0
3.7993e-07 -0.000393968 0
5.85234e-07 -0.000393515 0
4.36254e-07 -0.00034281 0
3.78144e-07 -0.000342489 0
5.85234e-07 -0.000393515 0
4.27746e-07 -0.000393076 0
0.0621434 -0.124159 0
0.0608396 -0.125201 0
-0.00803005 -0.187187 0
-0.00530815 -0.185748 0
0.0608396 -0.125201 0
0.0610297 -0.122197 0
-0.00530815 -0.185748 0
-0.00525792 -0.185891 0
0.0629466 -0.123349 0
-0.00478871 -0.185311 0
0.0610297 -0.122197 0
-0.00525792 -0.185891 0
0.0606712 -0.113074 0
-0.00182541 -0.187298 0
0.0629466 -0.123349 0
-0.00478871 -0.185311 0
0.00323449 -0.00434624 0
0.00167684 -0.00262896 0
0.00173069 -0.00767956 0
0.000991893 -0.00353617 0
0.00167684 -0.00262896 0
0.00061929 -0.000799534 0
0.000991893 -0.00353617 0
0.000638147 -0.00179176 0
0.000150848 -0.000716494 0
1.48685e-05 -0.00049315 0
0.00061929 -0.000799534 0
0.000638147 -0.00179176 0
0.000150848 -0.000716494 0
-0.000117271 -0.000292014 0
1.48685e-05 -0.00049315 0
-9.0619e-05 -0.000423673 0
-0.000117271 -0.000292014 0
-0.000174403 -0.000297092 0
-9.0619e-05 -0.000423673 0
-0.000244986 -0.000283925 0
-0.000206394 -0.000223918 0
-0.000230992 -0.000286274 0
-0.000174403 -0.000297092 0
-0.000244986 -0.000283925 0
-0.000215877 -0.0002302 0
-0.000261327 -0.000249706 0
-0.000206394 -0.000223918 0
-0.000230992 -0.000286274 0
-0.000215877 -0.0002302 0
-0.000217395 -0.000215495 0
-0.000261327 -0.000249706 0
-0.000248462 -0.000254756 0
-0.000217395 -0.000215495 0
-0.00021659 -0.000214183 0
-0.000248462 -0.000254756 0
-0.000255886 -0.000246713 0
-0.000210813 -0.000211409 0
-0.000248964 -0.000244832 0
-0.00021659 -0.000214183 0
-0.000255886 -0.000246713 0
-0.000210813 -0.000211409 0
-0.000208727 -0.000213422 0
-0.000248964 -0.000244832 0
-0.000246674 -0.000241207 0
-0.000208727 -0.000213422 0
-0.000206339 -0.000210001 0
-0.000246674 -0.000241207 0
-0.00024244 -0.000240715 0
-0.000206339 -0.000210001 0
-0.000203914 -0.000209874 0
-0.00024244 -0.000240715 0
-0.000240312 -0.000237919 0
-0.000203914 -0.000209874 0
-0.000203291 -0.000206667 0
-0.000240312 -0.000237919 0
-0.000237171 -0.000236523 0
-0.000200739 -0.000204268 0
-0.000234005 -0.000232977 0
-0.000203291 -0.000206667 0
-0.000237171 -0.000236523 0
-0.00019897 -0.000202552 0
-0.000231829 -0.00023088 0
-0.000200739 -0.000204268 0
-0.000234005 -0.000232977 0
-0.00019897 -0.000202552 0
-0.00019799 -0.000199057 0
-0.000231829 -0.00023088 0
-0.000229931 -0.000227432 0
-0.00019799 -0.000199057 0
-0.000195348 -0.000197582 0
-0.000229931 -0.000227432 0
-0.000227724 -0.000225205 0
-0.000195348 -0.000197582 0
-0.000193753 -0.000195466 0
-0.000227724 -0.000225205 0
-0.000225997 -0.000222535 0
-0.000193753 -0.000195466 0
-0.000191167 -0.000194695 0
-0.000225997 -0.000222535 0
-0.000224256 -0.000221025 0
-0.000191167 -0.000194695 0
-0.000190302 -0.000192873 0
-0.000224256 -0.000221025 0
-0.000221022 -0.000219164 0
-0.000190302 -0.000192873 0
-0.000185902 -0.000193749 0
-0.000221022 -0.000219164 0
-0.000218181 -0.000216024 0
-0.000185902 -0.000193749 0
-0.000185836 -0.00019483 0
-0.000218181 -0.000216024 0
-0.000215839 -0.000215758 0
-0.00018167 -0.000191984 0
-0.000214283 -0.000220483 0
-0.000185836 -0.00019483 0
-0.000215839 -0.000215758 0
-0.000177871 -0.000190841 0
-0.00022067 -0.000221513 0
-0.00018167 -0.000191984 0
-0.000214283 -0.000220483 0
-0.000177871 -0.000190841 0
-0.000179734 -0.000190701 0
-0.00022067 -0.000221513 0
-0.000222816 -0.000218544 0
-0.000182763 -0.000193978 0
-0.000223156 -0.000212488 0
-0.000179734 -0.000190701 0
-0.000222816 -0.000218544 0
-0.000189833 -0.000203129 0
-0.000211219 -0.000204469 0
-0.000182763 -0.000193978 0
-0.000223156 -0.000212488 0
-0.000189833 -0.000203129 0
-0.000198521 -0.000196803 0
-0.000211219 -0.000204469 0
-0.000206152 -0.000206581 0
-0.000193993 -0.000189126 0
-0.000219703 -0.000217001 0
-0.000198521 -0.000196803 0
-0.000206152 -0.000206581 0
-0.000193993 -0.000189126 0
-0.00018297 -0.000198394 0
-0.000219703 -0.000217001 0
-0.000234436 -0.000227378 0
-0.00018297 -0.000198394 0
-0.000169813 -0.000224316 0
-0.000234436 -0.000227378 0
-0.000213865 -0.000246217 0
-0.000169813 -0.000224316 0
-0.000166015 -0.000245082 0
-0.000213865 -0.000246217 0
-0.000201668 -0.000219194 0
-0.000166015 -0.000245082 0
-0.000221715 -0.000194913 0
-0.000201668 -0.000219194 0
-4.76201e-05 -0.000275766 0
-0.000221715 -0.000194913 0
-0.00013725 -0.0001296 0
-4.76201e-05 -0.000275766 0
-0.000166521 -0.00010176 0
-0.00013725 -0.0001296 0
-3.73961e-05 -0.000339024 0
-0.000166521 -0.00010176 0
-0.000180183 -0.000455676 0
-3.73961e-05 -0.000339024 0
6.01186e-05 -0.000277051 0
-0.000180183 -0.000455676 0
7.04249e-05 -0.0003327 0
6.01186e-05 -0.000277051 0
5.75395e-05 -0.000337205 0
7.04249e-05 -0.0003327 0
-8.10472e-05 -0.000310403 0
5.75395e-05 -0.000337205 0
1.17797e-05 -0.000378658 0
-8.10472e-05 -0.000310403 0
7.91824e-06 -0.000319122 0
1.17797e-05 -0.000378658 0
-5.12373e-05 -0.000337847 0
7.91824e-06 -0.000319122 0
-1.14451e-05 -0.000408256 0
5.85234e-07 -0.000393515 0
4.27746e-07 -0.000393076 0
4.28369e-08 4.63393e-06 0
-1.99878e-07 4.19136e-06 0
4.28369e-08 4.63393e-06 0
-1.99878e-07 4.19136e-06 0
-1.31083e-07 -0.000108429 0
-1.93052e-07 -0.000108189 0
-1.31083e-07 -0.000108429 0
-1.93052e-07 -0.000108189 0
-3.17314e-07 2.83456e-05 0
1.00219e-07 2.85316e-05 0
-3.17314e-07 2.83456e-05 0
1.00219e-07 2.85316e-05 0
1.4444e-07 -3.60446e-05 0
-8.73871e-08 -3.6165e-05 0
1.4444e-07 -3.60446e-05 0
-8.73871e-08 -3.6165e-05 0
-2.07458e-07 1.65593e-05 0
2.45062e-08 1.67759e-05 0
-2.07458e-07 1.65593e-05 0
2.45062e-08 1.67759e-05 0
2.2261e-07 -1.35304e-05 0
1.42568e-07 -1.3635e-05 0
-1.31543e-07 7.75671e-06 0
2.2261e-07 -1.35304e-05 0
-1.25962e-07 7.71633e-06 0
1.42568e-07 -1.3635e-05 0
-1.31543e-07 7.75671e-06 0
-1.25962e-07 7.71633e-06 0
3.92705e-09 -5.46295e-06 0
8.44612e-08 -5.44203e-06 0
3.92705e-09 -5.46295e-06 0
8.44612e-08 -5.44203e-06 0
-1.02121e-07 3.33248e-06 0
-1.61256e-07 3.23731e-06 0
-1.02121e-07 3.33248e-06 0
-1.61256e-07 3.23731e-06 0
-1.38255e-07 -2.34225e-06 0
-2.04118e-08 -2.28397e-06 0
-1.38255e-07 -2.34225e-06 0
-2.04118e-08 -2.28397e-06 0
-1.53454e-07 1.30239e-06 0
-7.28512e-08 1.2597e-06 0
-1.53454e-07 1.30239e-06 0
-7.28512e-08 1.2597e-06 0
-1.61999e-07 -9.96835e-07 0
-9.18319e-08 -1.01715e-06 0
-1.61999e-07 -9.96835e-07 0
-9.18319e-08 -1.01715e-06 0
-1.41471e-07 4.5096e-07 0
-1.61034e-07 4.42358e-07 0
-1.41471e-07 4.5096e-07 0
-1.61034e-07 4.42358e-07 0
-1.51489e-07 -3.5199e-07 0
-1.76822e-07 -4.25059e-07 0
-1.51489e-07 -3.5199e-07 0
-1.76822e-07 -4.25059e-07 0
-9.65048e-08 9.06978e-08 0
-4.07376e-07 2.54163e-08 0
-9.65048e-08 9.06978e-08 0
-4.07376e-07 2.54163e-08 0
-1.66906e-07 -8.56345e-08 0
-3.97635e-07 -1.41173e-07 0
-1.66906e-07 -8.56345e-08 0
-3.97635e-07 -1.41173e-07 0
-1.19401e-07 -1.70379e-07 0
-6.60775e-07 -3.32297e-07 0
-1.19401e-07 -1.70379e-07 0
-6.60775e-07 -3.32297e-07 0
-5.74718e-08 2.50285e-07 0
-8.67295e-07 2.64276e-07 0
-5.74718e-08 2.50285e-07 0
-8.67295e-07 2.64276e-07 0
1.42236e-08 -5.60336e-07 0
-6.97942e-07 -4.20714e-07 0
1.42236e-08 -5.60336e-07 0
-6.97942e-07 -4.20714e-07 0
4.90808e-08 8.99508e-07 0
-4.22212e-07 1.11454e-06 0
4.90808e-08 8.99508e-07 0
-4.22212e-07 1.11454e-06 0
8.84966e-08 -1.57837e-06 0
-6.29474e-08 -1.49671e-06 0
8.84966e-08 -1.57837e-06 0
-6.29474e-08 -1.49671e-06 0
2.05298e-07 2.39685e-06 0
-9.32588e-08 2.52592e-06 0
2.05298e-07 2.39685e-06 0
-9.32588e-08 2.52592e-06 0
3.67178e-07 -4.83023e-06 0
3.58408e-07 -4.4317e-06 0
3.67178e-07 -4.83023e-06 0
3.58408e-07 -4.4317e-06 0
4.54737e-07 6.4601e-06 0
4.98127e-07 5.86462e-06 0
4.54737e-07 6.4601e-06 0
4.98127e-07 5.86462e-06 0
-3.17849e-07 -1.07997e-05 0
-5.63937e-07 -1.08748e-05 0
-3.17849e-07 -1.07997e-05 0
-5.63937e-07 -1.08748e-05 0
1.56237e-07 1.84429e-05 0
3.04886e-07 1.85599e-05 0
1.56237e-07 1.84429e-05 0
3.04886e-07 1.85599e-05 0
2.24256e-07 -3.64034e-05 0
-4.65719e-07 -3.56016e-05 0
2.24256e-07 -3.64034e-05 0
-4.65719e-07 -3.56016e-05 0
1.79862e-06 4.71516e-05 0
1.73698e-06 4.72906e-05 0
1.79862e-06 4.71516e-05 0
1.73698e-06 4.72906e-05 0
-5.3735e-07 -0.000125692 0
-3.07748e-07 -0.00012634 0
-5.3735e-07 -0.000125692 0