# vtk DataFile Version 3.0
#This file was generated by the deal.II library on 2017/1/17 at 17:24:13
ASCII
DATASET UNSTRUCTURED_GRID

POINTS 6808 double
-1 0.5 0
-0.978723 0.478723 0
-0.970149 0.5 0
-0.964976 0.485465 0
-0.970149 0.5 0
-0.964976 0.485465 0
-0.940299 0.5 0
-0.945882 0.477585 0
-0.978723 0.478723 0
-0.957447 0.457447 0
-0.964976 0.485465 0
-0.945882 0.477585 0
-0.910448 0.5 0
-0.940299 0.5 0
-0.919731 0.466897 0
-0.945882 0.477585 0
0.12 -0.5 0
0.15 -0.5 0
0.119014 -0.4708 0
0.15 -0.471429 0
0.11755 -0.441479 0
0.119014 -0.4708 0
0.15 -0.442857 0
0.15 -0.471429 0
0.117242 -0.412206 0
0.11755 -0.441479 0
0.15 -0.414286 0
0.15 -0.442857 0
0.118129 -0.383064 0
0.117242 -0.412206 0
0.15 -0.385714 0
0.15 -0.414286 0
0.12021 -0.354337 0
0.118129 -0.383064 0
0.15 -0.357143 0
0.15 -0.385714 0
0.121793 -0.32584 0
0.12021 -0.354337 0
0.15 -0.328571 0
0.15 -0.357143 0
0.122717 -0.296869 0
0.121793 -0.32584 0
0.15 -0.3 0
0.15 -0.328571 0
0.123759 -0.266752 0
0.122717 -0.296869 0
0.153091 -0.267708 0
0.15 -0.3 0
0.18456 -0.26795 0
0.153091 -0.267708 0
0.183333 -0.3 0
0.15 -0.3 0
0.216606 -0.268111 0
0.18456 -0.26795 0
0.216667 -0.3 0
0.183333 -0.3 0
0.24835 -0.26841 0
0.216606 -0.268111 0
0.25 -0.3 0
0.216667 -0.3 0
0.278782 -0.268564 0
0.24835 -0.26841 0
0.279437 -0.298917 0
0.25 -0.3 0
0.279638 -0.328111 0
0.279437 -0.298917 0
0.25 -0.328571 0
0.25 -0.3 0
0.27971 -0.356801 0
0.279638 -0.328111 0
0.25 -0.357143 0
0.25 -0.328571 0
0.279677 -0.385395 0
0.27971 -0.356801 0
0.25 -0.385714 0
0.25 -0.357143 0
0.279641 -0.413938 0
0.279677 -0.385395 0
0.25 -0.414286 0
0.25 -0.385714 0
0.279666 -0.442534 0
0.279641 -0.413938 0
0.25 -0.442857 0
0.25 -0.414286 0
0.279811 -0.471266 0
0.279666 -0.442534 0
0.25 -0.471429 0
0.25 -0.442857 0
0.28 -0.5 0
0.279811 -0.471266 0
0.25 -0.5 0
0.25 -0.471429 0
0.970149 0.5 0
0.970096 0.46978 0
1 0.5 0
1 0.469697 0
0.940299 0.5 0
0.940231 0.46984 0
0.970149 0.5 0
0.970096 0.46978 0
0.910448 0.5 0
0.910371 0.469856 0
0.940299 0.5 0
0.940231 0.46984 0
0.880597 0.5 0
0.880527 0.469909 0
0.910448 0.5 0
0.910371 0.469856 0
0.850746 0.5 0
0.850684 0.469926 0
0.880597 0.5 0
0.880527 0.469909 0
0.820896 0.5 0
0.820842 0.469978 0
0.850746 0.5 0
0.850684 0.469926 0
0.791045 0.5 0
0.791001 0.470016 0
0.820896 0.5 0
0.820842 0.469978 0
0.761194 0.5 0
0.761159 0.470055 0
0.791045 0.5 0
0.791001 0.470016 0
0.731343 0.5 0
0.731316 0.470091 0
0.761194 0.5 0
0.761159 0.470055 0
0.701493 0.5 0
0.701472 0.470118 0
0.731343 0.5 0
0.731316 0.470091 0
0.671642 0.5 0
0.671627 0.470134 0
0.701493 0.5 0
0.701472 0.470118 0
0.641791 0.5 0
0.64178 0.470142 0
0.671642 0.5 0
0.671627 0.470134 0
0.641791 0.5 0
0.61194 0.5 0
0.64178 0.470142 0
0.611934 0.470065 0
0.58209 0.5 0
0.582089 0.470002 0
0.61194 0.5 0
0.611934 0.470065 0
0.552239 0.5 0
0.552248 0.469853 0
0.58209 0.5 0
0.582089 0.470002 0
0.522388 0.5 0
0.522413 0.469718 0
0.552239 0.5 0
0.552248 0.469853 0
0.492537 0.5 0
0.492577 0.469656 0
0.522388 0.5 0
0.522413 0.469718 0
0.462687 0.5 0
0.462743 0.469571 0
0.492537 0.5 0
0.492577 0.469656 0
0.432836 0.5 0
0.432895 0.46963 0
0.462687 0.5 0
0.462743 0.469571 0
0.402985 0.5 0
0.403046 0.469669 0
0.432836 0.5 0
0.432895 0.46963 0
0.373134 0.5 0
0.373191 0.469745 0
0.402985 0.5 0
0.403046 0.469669 0
0.343284 0.5 0
0.343335 0.469723 0
0.373134 0.5 0
0.373191 0.469745 0
0.313433 0.5 0
0.313478 0.469741 0
0.343284 0.5 0
0.343335 0.469723 0
0.283582 0.5 0
0.283622 0.469783 0
0.313433 0.5 0
0.313478 0.469741 0
0.253731 0.5 0
0.253768 0.469742 0
0.283582 0.5 0
0.283622 0.469783 0
0.223881 0.5 0
0.223918 0.469737 0
0.253731 0.5 0
0.253768 0.469742 0
0.19403 0.5 0
0.194064 0.46981 0
0.223881 0.5 0
0.223918 0.469737 0
0.164179 0.5 0
0.16421 0.469881 0
0.19403 0.5 0
0.194064 0.46981 0
0.134328 0.5 0
0.134355 0.46994 0
0.164179 0.5 0
0.16421 0.469881 0
0.104478 0.5 0
0.1045 0.469997 0
0.134328 0.5 0
0.134355 0.46994 0
0.074627 0.5 0
0.074645 0.470051 0
0.104478 0.5 0
0.1045 0.469997 0
0.044776 0.5 0
0.04479 0.470093 0
0.074627 0.5 0
0.074645 0.470051 0
0.014925 0.5 0
0.014935 0.47012 0
0.044776 0.5 0
0.04479 0.470093 0
-0.014925 0.5 0
-0.014918 0.470135 0
0.014925 0.5 0
0.014935 0.47012 0
-0.044776 0.5 0
-0.044771 0.470143 0
-0.014925 0.5 0
-0.014918 0.470135 0
-0.074627 0.5 0
-0.074623 0.470146 0
-0.044776 0.5 0
-0.044771 0.470143 0
-0.104478 0.5 0
-0.104496 0.469979 0
-0.074627 0.5 0
-0.074623 0.470146 0
-0.134328 0.5 0
-0.134359 0.469935 0
-0.104478 0.5 0
-0.104496 0.469979 0
-0.164179 0.5 0
-0.164225 0.469839 0
-0.134328 0.5 0
-0.134359 0.469935 0
-0.164179 0.5 0
-0.19403 0.5 0
-0.164225 0.469839 0
-0.194083 0.469797 0
-0.223881 0.5 0
-0.22394 0.469753 0
-0.19403 0.5 0
-0.194083 0.469797 0
-0.253731 0.5 0
-0.253798 0.469819 0
-0.223881 0.5 0
-0.22394 0.469753 0
-0.283582 0.5 0
-0.283647 0.470019 0
-0.253731 0.5 0
-0.253798 0.469819 0
-0.313433 0.5 0
-0.313491 0.470151 0
-0.283582 0.5 0
-0.283647 0.470019 0
-0.343284 0.5 0
-0.343348 0.470381 0
-0.313433 0.5 0
-0.313491 0.470151 0
-0.343284 0.5 0
-0.373134 0.5 0
-0.343348 0.470381 0
-0.373195 0.470395 0
-0.373134 0.5 0
-0.402985 0.5 0
-0.373195 0.470395 0
-0.403049 0.470404 0
-0.432836 0.5 0
-0.432937 0.470297 0
-0.402985 0.5 0
-0.403049 0.470404 0
-0.462687 0.5 0
-0.462848 0.469995 0
-0.432836 0.5 0
-0.432937 0.470297 0
-0.492537 0.5 0
-0.492807 0.469765 0
-0.462687 0.5 0
-0.462848 0.469995 0
-0.522388 0.5 0
-0.52276 0.46958 0
-0.492537 0.5 0
-0.492807 0.469765 0
-0.552239 0.5 0
-0.55273 0.469652 0
-0.522388 0.5 0
-0.52276 0.46958 0
-0.58209 0.5 0
-0.582662 0.469731 0
-0.552239 0.5 0
-0.55273 0.469652 0
-0.61194 0.5 0
-0.612594 0.469999 0
-0.58209 0.5 0
-0.582662 0.469731 0
-0.641791 0.5 0
-0.642647 0.470419 0
-0.61194 0.5 0
-0.612594 0.469999 0
-0.671642 0.5 0
-0.672638 0.470543 0
-0.641791 0.5 0
-0.642647 0.470419 0
-0.701493 0.5 0
-0.702968 0.4698 0
-0.671642 0.5 0
-0.672638 0.470543 0
-0.701493 0.5 0
-0.731343 0.5 0
-0.702968 0.4698 0
-0.733232 0.468149 0
-0.731343 0.5 0
-0.761194 0.5 0
-0.733232 0.468149 0
-0.765399 0.466448 0
-0.791045 0.5 0
-0.795702 0.469563 0
-0.761194 0.5 0
-0.765399 0.466448 0
-0.820896 0.5 0
-0.822797 0.47207 0
-0.791045 0.5 0
-0.795702 0.469563 0
-0.850746 0.5 0
-0.850723 0.467038 0
-0.820896 0.5 0
-0.822797 0.47207 0
-0.880597 0.5 0
-0.887028 0.454038 0
-0.850746 0.5 0
-0.850723 0.467038 0
-0.910448 0.5 0
-0.919731 0.466897 0
-0.880597 0.5 0
-0.887028 0.454038 0
0.31 -0.5 0
0.309694 -0.471123 0
0.28 -0.5 0
0.279811 -0.471266 0
0.31 -0.5 0
0.34 -0.5 0
0.309694 -0.471123 0
0.339686 -0.471033 0
0.37 -0.5 0
0.369721 -0.471055 0
0.34 -0.5 0
0.339686 -0.471033 0
0.37 -0.5 0
0.4 -0.5 0
0.369721 -0.471055 0
0.399756 -0.470957 0
0.4 -0.5 0
0.43 -0.5 0
0.399756 -0.470957 0
0.429805 -0.470822 0
0.43 -0.5 0
0.46 -0.5 0
0.429805 -0.470822 0
0.459835 -0.470712 0
0.46 -0.5 0
0.49 -0.5 0
0.459835 -0.470712 0
0.489873 -0.470554 0
0.49 -0.5 0
0.52 -0.5 0
0.489873 -0.470554 0
0.519906 -0.470379 0
0.52 -0.5 0
0.55 -0.5 0
0.519906 -0.470379 0
0.54993 -0.470248 0
0.55 -0.5 0
0.58 -0.5 0
0.54993 -0.470248 0
0.579948 -0.470155 0
0.58 -0.5 0
0.61 -0.5 0
0.579948 -0.470155 0
0.609962 -0.470091 0
0.61 -0.5 0
0.64 -0.5 0
0.609962 -0.470091 0
0.639972 -0.47005 0
0.64 -0.5 0
0.67 -0.5 0
0.639972 -0.47005 0
0.66998 -0.470026 0
0.67 -0.5 0
0.7 -0.5 0
0.66998 -0.470026 0
0.699986 -0.470013 0
0.7 -0.5 0
0.73 -0.5 0
0.699986 -0.470013 0
0.72999 -0.470006 0
0.73 -0.5 0
0.76 -0.5 0
0.72999 -0.470006 0
0.759994 -0.470003 0
0.76 -0.5 0
0.79 -0.5 0
0.759994 -0.470003 0
0.78998 -0.469916 0
0.79 -0.5 0
0.82 -0.5 0
0.78998 -0.469916 0
0.819956 -0.469877 0
0.82 -0.5 0
0.85 -0.5 0
0.819956 -0.469877 0
0.849929 -0.469833 0
0.85 -0.5 0
0.88 -0.5 0
0.849929 -0.469833 0
0.879924 -0.469805 0
0.88 -0.5 0
0.91 -0.5 0
0.879924 -0.469805 0
0.909913 -0.469792 0
0.91 -0.5 0
0.94 -0.5 0
0.909913 -0.469792 0
0.939922 -0.469775 0
0.94 -0.5 0
0.97 -0.5 0
0.939922 -0.469775 0
0.969956 -0.46974 0
0.97 -0.5 0
1 -0.5 0
0.969956 -0.46974 0
1 -0.469697 0
-0.893617 0.393617 0
-0.87234 0.37234 0
-0.867787 0.420844 0
-0.847479 0.396796 0
-0.87234 0.37234 0
-0.851064 0.351064 0
-0.847479 0.396796 0
-0.826567 0.37451 0
-0.829787 0.329787 0
-0.806205 0.352141 0
-0.851064 0.351064 0
-0.826567 0.37451 0
-0.808511 0.308511 0
-0.786305 0.329477 0
-0.829787 0.329787 0
-0.806205 0.352141 0
-0.765957 0.265957 0
-0.744681 0.244681 0
-0.745195 0.286345 0
-0.723868 0.265704 0
-0.744681 0.244681 0
-0.723404 0.223404 0
-0.723868 0.265704 0
-0.702394 0.245107 0
-0.702128 0.202128 0
-0.680976 0.2243 0
-0.723404 0.223404 0
-0.702394 0.245107 0
-0.702128 0.202128 0
-0.680851 0.180851 0
-0.680976 0.2243 0
-0.659597 0.203254 0
-0.680851 0.180851 0
-0.659574 0.159574 0
-0.659597 0.203254 0
-0.638233 0.18203 0
-0.638298 0.138298 0
-0.616915 0.16063 0
-0.659574 0.159574 0
-0.638233 0.18203 0
-0.617021 0.117021 0
-0.595665 0.139192 0
-0.638298 0.138298 0
-0.616915 0.16063 0
-0.617021 0.117021 0
-0.595745 0.095745 0
-0.595665 0.139192 0
-0.574431 0.117764 0
-0.595745 0.095745 0
-0.574468 0.074468 0
-0.574431 0.117764 0
-0.553204 0.096309 0
-0.553191 0.053191 0
-0.53184 0.075023 0
-0.574468 0.074468 0
-0.553204 0.096309 0
-0.553191 0.053191 0
-0.531915 0.031915 0
-0.53184 0.075023 0
-0.510492 0.053733 0
-0.531915 0.031915 0
-0.510638 0.010638 0
-0.510492 0.053733 0
-0.489127 0.032461 0
-0.510638 0.010638 0
-0.489362 -0.010638 0
-0.489127 0.032461 0
-0.467791 0.011178 0
-0.489362 -0.010638 0
-0.468085 -0.031915 0
-0.467791 0.011178 0
-0.446536 -0.010172 0
-0.446809 -0.053191 0
-0.42524 -0.031466 0
-0.468085 -0.031915 0
-0.446536 -0.010172 0
-0.425532 -0.074468 0
-0.404012 -0.052824 0
-0.446809 -0.053191 0
-0.42524 -0.031466 0
-0.425532 -0.074468 0
-0.404255 -0.095745 0
-0.404012 -0.052824 0
-0.382783 -0.074175 0
-0.404255 -0.095745 0
-0.382979 -0.117021 0
-0.382783 -0.074175 0
-0.361545 -0.095511 0
-0.382979 -0.117021 0
-0.361702 -0.138298 0
-0.361545 -0.095511 0
-0.340288 -0.116831 0
-0.361702 -0.138298 0
-0.340426 -0.159574 0
-0.340288 -0.116831 0
-0.319034 -0.138159 0
-0.340426 -0.159574 0
-0.319149 -0.180851 0
[...]
POINT_DATA 6808
VECTORS momentum double
-0.000207524 -0.000490659 0
0.000531984 -0.00074123 0
8.43168e-05 -0.000790308 0
-0.000513198 -0.00185456 0
8.43168e-05 -0.000790308 0
-0.000513198 -0.00185456 0
-0.000330754 -0.000368977 0
0.00107134 -0.00277036 0
0.000531984 -0.00074123 0
0.000349434 -0.00200888 0
-0.000513198 -0.00185456 0
0.00107134 -0.00277036 0
-0.00111686 -0.00227767 0
-0.000330754 -0.000368977 0
0.00119694 -0.00267817 0
0.00107134 -0.00277036 0
-4.40496e-05 -0.00050199 0
4.21608e-06 -0.000490419 0
-2.70781e-06 -0.000403003 0
8.43349e-06 -0.00040792 0
-7.21659e-05 7.09686e-05 0
-2.70781e-06 -0.000403003 0
2.61637e-05 8.08231e-05 0
8.43349e-06 -0.00040792 0
4.39179e-05 -0.000109882 0
-7.21659e-05 7.09686e-05 0
-6.61962e-06 -0.000127207 0
2.61637e-05 8.08231e-05 0
2.9316e-05 2.58563e-05 0
4.39179e-05 -0.000109882 0
-1.85194e-05 8.37496e-05 0
-6.61962e-06 -0.000127207 0
2.87656e-05 1.0085e-05 0
2.9316e-05 2.58563e-05 0
3.33773e-05 -0.000120788 0
-1.85194e-05 8.37496e-05 0
-2.42639e-05 1.82258e-05 0
2.87656e-05 1.0085e-05 0
-9.76701e-05 0.000299672 0
3.33773e-05 -0.000120788 0
0.000170587 4.05133e-05 0
-2.42639e-05 1.82258e-05 0
0.00040332 -0.000165771 0
-9.76701e-05 0.000299672 0
-3.37732e-05 2.73022e-06 0
0.000170587 4.05133e-05 0
-4.60282e-05 -0.000216949 0
0.00040332 -0.000165771 0
-1.50392e-05 -0.000464797 0
-4.60282e-05 -0.000216949 0
0.000311225 -0.000691099 0
0.00040332 -0.000165771 0
3.08912e-05 -0.000451014 0
-1.50392e-05 -0.000464797 0
-0.000333975 -0.000663008 0
0.000311225 -0.000691099 0
2.35771e-05 -0.000215172 0
3.08912e-05 -0.000451014 0
-0.000368741 -0.000145894 0
-0.000333975 -0.000663008 0
1.82426e-05 -4.52431e-06 0
2.35771e-05 -0.000215172 0
-0.000154889 3.50077e-05 0
-0.000368741 -0.000145894 0
2.93683e-05 1.31904e-05 0
-0.000154889 3.50077e-05 0
9.1376e-05 0.000290191 0
-0.000368741 -0.000145894 0
-2.07182e-05 -1.2876e-05 0
2.93683e-05 1.31904e-05 0
-3.65972e-05 -0.000138797 0
9.1376e-05 0.000290191 0
9.70987e-06 3.92485e-05 0
-2.07182e-05 -1.2876e-05 0
1.52304e-05 9.98415e-05 0
-3.65972e-05 -0.000138797 0
-5.09134e-06 -7.82379e-05 0
9.70987e-06 3.92485e-05 0
-6.76784e-06 -0.00010659 0
1.52304e-05 9.98415e-05 0
2.51796e-06 0.000101561 0
-5.09134e-06 -7.82379e-05 0
3.20737e-06 0.00011359 0
-6.76784e-06 -0.00010659 0
-3.42576e-06 -0.000399123 0
2.51796e-06 0.000101561 0
-2.2092e-06 -0.000407199 0
3.20737e-06 0.00011359 0
7.12016e-06 -0.000495379 0
-3.42576e-06 -0.000399123 0
2.5486e-06 -0.000487344 0
-2.2092e-06 -0.000407199 0
-9.47823e-07 -0.00064452 0
-1.44781e-06 -0.000497849 0
-1.32702e-06 -0.000643712 0
-6.84866e-07 -0.000496639 0
-6.70646e-07 -0.000646045 0
-1.11375e-06 -0.000498973 0
-9.47823e-07 -0.00064452 0
-1.44781e-06 -0.000497849 0
-1.00436e-06 -0.000645973 0
-7.35401e-08 -0.000499445 0
-6.70646e-07 -0.000646045 0
-1.11375e-06 -0.000498973 0
-1.05438e-06 -0.000645849 0
-1.86159e-07 -0.000499825 0
-1.00436e-06 -0.000645973 0
-7.35401e-08 -0.000499445 0
-1.2986e-06 -0.000645535 0
-4.27693e-08 -0.000499865 0
-1.05438e-06 -0.000645849 0
-1.86159e-07 -0.000499825 0
-1.32996e-06 -0.000645094 0
-9.98884e-08 -0.000500013 0
-1.2986e-06 -0.000645535 0
-4.27693e-08 -0.000499865 0
-1.13586e-06 -0.000645088 0
-1.1855e-07 -0.000499946 0
-1.32996e-06 -0.000645094 0
-9.98884e-08 -0.000500013 0
-1.27641e-06 -0.000644612 0
2.4434e-07 -0.000500202 0
-1.13586e-06 -0.000645088 0
-1.1855e-07 -0.000499946 0
-7.05441e-07 -0.000644234 0
-2.98539e-07 -0.00050038 0
-1.27641e-06 -0.000644612 0
2.4434e-07 -0.000500202 0
-6.82533e-07 -0.000644696 0
1.03295e-07 -0.000500406 0
-7.05441e-07 -0.000644234 0
-2.98539e-07 -0.00050038 0
-1.40472e-08 -0.000643768 0
1.27338e-06 -0.000500116 0
-6.82533e-07 -0.000644696 0
1.03295e-07 -0.000500406 0
1.36483e-06 -0.000643308 0
8.52853e-07 -0.000499996 0
-1.40472e-08 -0.000643768 0
1.27338e-06 -0.000500116 0
1.36483e-06 -0.000643308 0
1.82655e-06 -0.000642863 0
8.52853e-07 -0.000499996 0
1.06057e-06 -0.000499356 0
3.26133e-06 -0.000642499 0
3.56015e-07 -0.000499168 0
1.82655e-06 -0.000642863 0
1.06057e-06 -0.000499356 0
3.21765e-06 -0.000643688 0
-8.80753e-07 -0.000498166 0
3.26133e-06 -0.000642499 0
3.56015e-07 -0.000499168 0
1.43068e-06 -0.000644227 0
2.58153e-08 -0.00049625 0
3.21765e-06 -0.000643688 0
-8.80753e-07 -0.000498166 0
2.06311e-06 -0.000643998 0
4.36506e-07 -0.000495086 0
1.43068e-06 -0.000644227 0
2.58153e-08 -0.00049625 0
1.97449e-06 -0.000644661 0
-3.43375e-08 -0.000495211 0
2.06311e-06 -0.000643998 0
4.36506e-07 -0.000495086 0
-5.41193e-07 -0.000645936 0
5.41792e-07 -0.000495724 0
1.97449e-06 -0.000644661 0
-3.43375e-08 -0.000495211 0
-1.68284e-06 -0.000644885 0
9.00038e-07 -0.000494956 0
-5.41193e-07 -0.000645936 0
5.41792e-07 -0.000495724 0
-1.33735e-06 -0.000644343 0
-2.96944e-07 -0.000495344 0
-1.68284e-06 -0.000644885 0
9.00038e-07 -0.000494956 0
-6.04297e-08 -0.000644575 0
-9.09243e-07 -0.000494143 0
-1.33735e-06 -0.000644343 0
-2.96944e-07 -0.000495344 0
-4.71752e-07 -0.000645284 0
-1.82692e-07 -0.00049539 0
-6.04297e-08 -0.000644575 0
-9.09243e-07 -0.000494143 0
-9.90131e-07 -0.000644729 0
2.96649e-08 -0.000495628 0
-4.71752e-07 -0.000645284 0
-1.82692e-07 -0.00049539 0
5.51159e-07 -0.000644324 0
-2.57499e-08 -0.000494819 0
-9.90131e-07 -0.000644729 0
2.96649e-08 -0.000495628 0
4.60561e-08 -0.000644505 0
-1.14302e-07 -0.000496099 0
5.51159e-07 -0.000644324 0
-2.57499e-08 -0.000494819 0
-1.68157e-06 -0.000645077 0
-1.56021e-07 -0.000496918 0
4.60561e-08 -0.000644505 0
-1.14302e-07 -0.000496099 0
-2.08754e-06 -0.0006445 0
1.41718e-07 -0.000497238 0
-1.68157e-06 -0.000645077 0
-1.56021e-07 -0.000496918 0
-1.65036e-06 -0.000643863 0
-5.20923e-07 -0.000498271 0
-2.08754e-06 -0.0006445 0
1.41718e-07 -0.000497238 0
-1.49004e-06 -0.000644308 0
-7.76566e-07 -0.000498787 0
-1.65036e-06 -0.000643863 0
-5.20923e-07 -0.000498271 0
-1.43043e-06 -0.000644375 0
-2.77574e-07 -0.000499045 0
-1.49004e-06 -0.000644308 0
-7.76566e-07 -0.000498787 0
-1.36417e-06 -0.000643976 0
4.9848e-08 -0.000499458 0
-1.43043e-06 -0.000644375 0
-2.77574e-07 -0.000499045 0
-6.0652e-07 -0.000643447 0
-4.58427e-07 -0.00049982 0
-1.36417e-06 -0.000643976 0
4.9848e-08 -0.000499458 0
-8.22281e-07 -0.000643784 0
5.80614e-08 -0.000500384 0
-6.0652e-07 -0.000643447 0
-4.58427e-07 -0.00049982 0
6.41995e-07 -0.000642748 0
1.44102e-06 -0.000499448 0
-8.22281e-07 -0.000643784 0
5.80614e-08 -0.000500384 0
3.20752e-06 -0.000643259 0
8.30823e-07 -0.000499603 0
6.41995e-07 -0.000642748 0
1.44102e-06 -0.000499448 0
2.55139e-06 -0.000643457 0
4.34366e-07 -0.000497361 0
3.20752e-06 -0.000643259 0
8.30823e-07 -0.000499603 0
2.14587e-06 -0.000643762 0
6.41347e-07 -0.000496579 0
2.55139e-06 -0.000643457 0
4.34366e-07 -0.000497361 0
1.85176e-06 -0.000643709 0
5.0215e-07 -0.000495295 0
2.14587e-06 -0.000643762 0
6.41347e-07 -0.000496579 0
1.85176e-06 -0.000643709 0
7.99471e-07 -0.00064407 0
5.0215e-07 -0.000495295 0
-1.0252e-06 -0.000494282 0
-1.15987e-06 -0.000644758 0
-2.16043e-06 -0.000495693 0
7.99471e-07 -0.00064407 0
-1.0252e-06 -0.000494282 0
-3.85006e-06 -0.00064489 0
-2.89036e-07 -0.000497455 0
-1.15987e-06 -0.000644758 0
-2.16043e-06 -0.000495693 0
-4.79079e-06 -0.000643852 0
-4.63439e-07 -0.00049977 0
-3.85006e-06 -0.00064489 0
-2.89036e-07 -0.000497455 0
-3.65301e-06 -0.000643783 0
-1.67726e-06 -0.000502441 0
-4.79079e-06 -0.000643852 0
-4.63439e-07 -0.00049977 0
-2.63595e-06 -0.00064484 0
6.26812e-08 -0.000506403 0
-3.65301e-06 -0.000643783 0
-1.67726e-06 -0.000502441 0
-2.63595e-06 -0.00064484 0
-5.51772e-07 -0.000642826 0
6.26812e-08 -0.000506403 0
1.88295e-06 -0.000505563 0
-5.51772e-07 -0.000642826 0
4.31692e-06 -0.000642707 0
1.88295e-06 -0.000505563 0
3.03678e-06 -0.000503697 0
8.1708e-06 -0.000643786 0
3.60364e-06 -0.000501489 0
4.31692e-06 -0.000642707 0
3.03678e-06 -0.000503697 0
8.7776e-06 -0.000643944 0
1.67668e-06 -0.000498876 0
8.1708e-06 -0.000643786 0
3.60364e-06 -0.000501489 0
5.57298e-06 -0.000643851 0
1.61871e-06 -0.000502351 0
8.7776e-06 -0.000643944 0
1.67668e-06 -0.000498876 0
4.53002e-06 -0.000645262 0
-8.37365e-06 -0.00050184 0
5.57298e-06 -0.000643851 0
1.61871e-06 -0.000502351 0
-3.1511e-06 -0.000656806 0
4.38025e-06 -0.000499972 0
4.53002e-06 -0.000645262 0
-8.37365e-06 -0.00050184 0
9.95706e-06 -0.000658865 0
-3.19253e-05 -0.000487428 0
-3.1511e-06 -0.000656806 0
4.38025e-06 -0.000499972 0
-3.79716e-05 -0.000694859 0
5.49214e-05 -0.000475608 0
9.95706e-06 -0.000658865 0
-3.19253e-05 -0.000487428 0
2.78684e-05 -0.000614556 0
-0.00015405 -0.000505131 0
-3.79716e-05 -0.000694859 0
5.49214e-05 -0.000475608 0
-7.95213e-05 -0.000967311 0
-0.0004724 -0.000720083 0
2.78684e-05 -0.000614556 0
-0.00015405 -0.000505131 0
-6.64909e-05 -0.00131661 0
-0.00043379 -0.00184756 0
-7.95213e-05 -0.000967311 0
-0.0004724 -0.000720083 0
-6.64909e-05 -0.00131661 0
0.000277417 -0.00149177 0
-0.00043379 -0.00184756 0
-0.0018278 -0.00352232 0
0.000277417 -0.00149177 0
-0.000462871 -0.00092859 0
-0.0018278 -0.00352232 0
0.00116162 -0.00944912 0
0.000147996 -0.00120151 0
0.000567284 -0.00202703 0
-0.000462871 -0.00092859 0
0.00116162 -0.00944912 0
0.000138897 -0.00108905 0
-0.000614192 -0.00280471 0
0.000147996 -0.00120151 0
0.000567284 -0.00202703 0
0.00054194 -0.00184871 0
-0.000303479 -0.00428079 0
0.000138897 -0.00108905 0
-0.000614192 -0.00280471 0
-0.000217611 0.000145359 0
0.000562744 -0.0112843 0
0.00054194 -0.00184871 0
-0.000303479 -0.00428079 0
-0.00111686 -0.00227767 0
0.00119694 -0.00267817 0
-0.000217611 0.000145359 0
0.000562744 -0.0112843 0
5.70646e-06 -0.000500956 0
2.06393e-07 -0.0004009 0
7.12016e-06 -0.000495379 0
-3.42576e-06 -0.000399123 0
5.70646e-06 -0.000500956 0
1.65586e-06 -0.00050124 0
2.06393e-07 -0.0004009 0
2.27476e-06 -0.000401938 0
2.98878e-08 -0.000500026 0
1.23764e-06 -0.000401494 0
1.65586e-06 -0.00050124 0
2.27476e-06 -0.000401938 0
2.98878e-08 -0.000500026 0
1.45372e-06 -0.000499597 0
1.23764e-06 -0.000401494 0
-4.97408e-07 -0.000398708 0
1.45372e-06 -0.000499597 0
2.46948e-06 -0.000500735 0
-4.97408e-07 -0.000398708 0
1.51839e-07 -0.000396872 0
2.46948e-06 -0.000500735 0
1.97562e-06 -0.000500161 0
1.51839e-07 -0.000396872 0
2.02975e-06 -0.000395019 0
1.97562e-06 -0.000500161 0
2.75464e-06 -0.000498138 0
2.02975e-06 -0.000395019 0
1.04636e-06 -0.000394531 0
2.75464e-06 -0.000498138 0
3.37224e-06 -0.000498703 0
1.04636e-06 -0.000394531 0
-5.56286e-07 -0.000393702 0
3.37224e-06 -0.000498703 0
2.64917e-06 -0.000500199 0
-5.56286e-07 -0.000393702 0
-3.68514e-07 -0.000392853 0
2.64917e-06 -0.000500199 0
1.76677e-06 -0.000500894 0
-3.68514e-07 -0.000392853 0
-1.26179e-07 -0.000392642 0
1.76677e-06 -0.000500894 0
1.25212e-06 -0.000501382 0
-1.26179e-07 -0.000392642 0
-1.82176e-07 -0.000392567 0
1.25212e-06 -0.000501382 0
7.39021e-07 -0.000501806 0
-1.82176e-07 -0.000392567 0
-1.09368e-07 -0.000392445 0
7.39021e-07 -0.000501806 0
4.56505e-07 -0.000501934 0
-1.09368e-07 -0.000392445 0
8.8761e-09 -0.000392474 0
4.56505e-07 -0.000501934 0
1.75292e-07 -0.00050199 0
8.8761e-09 -0.000392474 0
1.28791e-07 -0.000392452 0
1.75292e-07 -0.00050199 0
3.98771e-07 -0.000501834 0
1.28791e-07 -0.000392452 0
4.95563e-07 -0.000392133 0
3.98771e-07 -0.000501834 0
1.1434e-06 -0.000501775 0
4.95563e-07 -0.000392133 0
2.32884e-07 -0.000392222 0
1.1434e-06 -0.000501775 0
1.22418e-06 -0.000501936 0
2.32884e-07 -0.000392222 0
-4.74611e-07 -0.000391977 0
1.22418e-06 -0.000501936 0
1.39964e-06 -0.00050271 0
-4.74611e-07 -0.000391977 0
-1.48421e-07 -0.000392084 0
1.39964e-06 -0.00050271 0
1.42688e-06 -0.000503298 0
-1.48421e-07 -0.000392084 0
1.93457e-07 -0.000392277 0
1.42688e-06 -0.000503298 0
8.5489e-07 -0.000503724 0
1.93457e-07 -0.000392277 0
1.97456e-07 -0.00039248 0
8.5489e-07 -0.000503724 0
5.2622e-07 -0.000503805 0
1.97456e-07 -0.00039248 0
9.7617e-08 -0.000392697 0
5.2622e-07 -0.000503805 0
2.57667e-07 -0.000504025 0
9.7617e-08 -0.000392697 0
2.92909e-07 -0.000392259 0
2.57667e-07 -0.000504025 0
4.70246e-08 -0.000503423 0
2.92909e-07 -0.000392259 0
6.3957e-07 -0.000391453 0
4.70246e-08 -0.000503423 0
4.3144e-08 -0.000502627 0
6.3957e-07 -0.000391453 0
5.36539e-07 -0.000390714 0
0.0453336 -0.136565 0
0.0447156 -0.138732 0
-0.00878952 -0.190846 0
-0.00833727 -0.188127 0
0.0447156 -0.138732 0
0.0451829 -0.136029 0
-0.00833727 -0.188127 0
-0.00804148 -0.187866 0
0.0468577 -0.137135 0
-0.00852461 -0.188221 0
0.0451829 -0.136029 0
-0.00804148 -0.187866 0
0.0467379 -0.127889 0
-0.0054511 -0.18956 0
0.0468577 -0.137135 0
-0.00852461 -0.188221 0
0.000313801 -0.00118997 0
0.0001409 -0.00132121 0
4.43458e-05 -0.00454292 0
-0.000467126 -0.000698376 0
0.0001409 -0.00132121 0
-0.000309692 -2.85779e-05 0
-0.000467126 -0.000698376 0
-8.3549e-05 -0.000737321 0
-0.000248291 -0.000484811 0
-0.000268933 -0.000125229 0
-0.000309692 -2.85779e-05 0
-8.3549e-05 -0.000737321 0
-0.000248291 -0.000484811 0
-0.000322 -0.000252181 0
-0.000268933 -0.000125229 0
-0.000192042 -0.000283895 0
-0.000322 -0.000252181 0
-0.000291782 -0.000331828 0
-0.000192042 -0.000283895 0
-0.000247224 -0.000221839 0
-0.000303714 -0.0002879 0
-0.00022134 -0.000241286 0
-0.000291782 -0.000331828 0
-0.000247224 -0.000221839 0
-0.000299513 -0.000301416 0
-0.000233542 -0.00022264 0
-0.000303714 -0.0002879 0
-0.00022134 -0.000241286 0
-0.000299513 -0.000301416 0
-0.000299977 -0.000292714 0
-0.000233542 -0.00022264 0
-0.000225244 -0.000227285 0
-0.000299977 -0.000292714 0
-0.000297044 -0.000291706 0
-0.000225244 -0.000227285 0
-0.000228586 -0.000225289 0
-0.000292064 -0.000288877 0
-0.00022475 -0.000222202 0
-0.000297044 -0.000291706 0
-0.000228586 -0.000225289 0
-0.000292064 -0.000288877 0
-0.000289338 -0.000290814 0
-0.00022475 -0.000222202 0
-0.000222468 -0.000221295 0
-0.000289338 -0.000290814 0
-0.000287548 -0.000286785 0
-0.000222468 -0.000221295 0
-0.00022074 -0.000220337 0
-0.000287548 -0.000286785 0
-0.000285061 -0.000287082 0
-0.00022074 -0.000220337 0
-0.000219246 -0.000218704 0
-0.000285061 -0.000287082 0
-0.00028541 -0.000283932 0
-0.000219246 -0.000218704 0
-0.000217597 -0.000217919 0
-0.000282422 -0.000281478 0
-0.000215205 -0.000215842 0
-0.00028541 -0.000283932 0
-0.000217597 -0.000217919 0
-0.000280571 -0.000280035 0
-0.000214733 -0.000215328 0
-0.000282422 -0.000281478 0
-0.000215205 -0.000215842 0
-0.000280571 -0.000280035 0
-0.000279451 -0.000276584 0
-0.000214733 -0.000215328 0
-0.000213924 -0.000213561 0
-0.000279451 -0.000276584 0
-0.00027654 -0.000275098 0
-0.000213924 -0.000213561 0
-0.000213077 -0.000212648 0
-0.00027654 -0.000275098 0
-0.000274885 -0.000273424 0
-0.000213077 -0.000212648 0
-0.000212421 -0.00021091 0
-0.000274885 -0.000273424 0
-0.000272967 -0.000272828 0
-0.000212421 -0.00021091 0
-0.000211687 -0.000210083 0
-0.000272967 -0.000272828 0
-0.000272704 -0.00027056 0
-0.000211687 -0.000210083 0
-0.000209193 -0.000209404 0
-0.000272704 -0.00027056 0
-0.000267925 -0.000270858 0
-0.000209193 -0.000209404 0
-0.000207402 -0.000206737 0
-0.000267925 -0.000270858 0
-0.000268366 -0.000272789 0
-0.000207402 -0.000206737 0
-0.000206267 -0.00020604 0
-0.000264956 -0.000270482 0
-0.00020478 -0.000209979 0
-0.000268366 -0.000272789 0
-0.000206267 -0.00020604 0
-0.000261437 -0.000270477 0
-0.000211345 -0.000211637 0
-0.000264956 -0.000270482 0
-0.00020478 -0.000209979 0
-0.000261437 -0.000270477 0
-0.000265044 -0.000270561 0
-0.000211345 -0.000211637 0
-0.000214278 -0.000211038 0
-0.000267713 -0.000273932 0
-0.000214849 -0.000208068 0
-0.000265044 -0.000270561 0
-0.000214278 -0.000211038 0
-0.00027559 -0.000284558 0
-0.000205618 -0.000201239 0
-0.000267713 -0.000273932 0
-0.000214849 -0.000208068 0
-0.00027559 -0.000284558 0
-0.000283017 -0.000282492 0
-0.000205618 -0.000201239 0
-0.000202354 -0.000203289 0
-0.000282689 -0.000274479 0
-0.000221655 -0.000216666 0
-0.000283017 -0.000282492 0
-0.000202354 -0.000203289 0
-0.000282689 -0.000274479 0
-0.000272495 -0.000284688 0
-0.000221655 -0.000216666 0
-0.000233168 -0.000230311 0
-0.000272495 -0.000284688 0
-0.000270939 -0.000298864 0
-0.000233168 -0.000230311 0
-0.00021986 -0.000237285 0
-0.000270939 -0.000298864 0
-0.000266128 -0.000327659 0
-0.00021986 -0.000237285 0
-0.000206483 -0.000199538 0
-0.000266128 -0.000327659 0
-0.00035824 -0.000254435 0
-0.000206483 -0.000199538 0
-3.92334e-05 -0.00022681 0
-0.00035824 -0.000254435 0
-0.000228744 -0.000185747 0
-3.92334e-05 -0.00022681 0
-0.000226152 -3.74287e-05 0
-0.000228744 -0.000185747 0
-8.74751e-05 -0.000545432 0
-0.000226152 -3.74287e-05 0
-0.000255332 -0.000549954 0
-8.74751e-05 -0.000545432 0
6.61843e-05 -0.000459753 0
-0.000255332 -0.000549954 0
0.000139848 -0.000354193 0
6.61843e-05 -0.000459753 0
6.64225e-05 -0.000509244 0
0.000139848 -0.000354193 0
-6.45284e-05 -0.000278785 0
6.64225e-05 -0.000509244 0
1.99764e-05 -0.000558588 0
-6.45284e-05 -0.000278785 0
1.24944e-05 -0.000300597 0
1.99764e-05 -0.000558588 0
-4.40496e-05 -0.00050199 0
1.24944e-05 -0.000300597 0
-2.70781e-06 -0.000403003 0
6.3957e-07 -0.000391453 0
5.36539e-07 -0.000390714 0
-4.51052e-08 0.00010349 0
-3.28346e-07 0.000102888 0
-4.51052e-08 0.00010349 0
-3.28346e-07 0.000102888 0
-2.11826e-07 -7.4424e-05 0
-2.20172e-07 -7.41728e-05 0
-2.11826e-07 -7.4424e-05 0
-2.20172e-07 -7.41728e-05 0
-2.82067e-07 3.7074e-05 0
1.59446e-07 3.72926e-05 0
-2.82067e-07 3.7074e-05 0
1.59446e-07 3.72926e-05 0
1.9586e-07 -2.04706e-05 0
-8.35224e-08 -2.06589e-05 0
1.9586e-07 -2.04706e-05 0
-8.35224e-08 -2.06589e-05 0
-1.91764e-07 1.08355e-05 0
2.18789e-08 1.10618e-05 0
-1.91764e-07 1.08355e-05 0
2.18789e-08 1.10618e-05 0
2.4366e-07 -5.7249e-06 0
1.6945e-07 -5.82384e-06 0
-1.025e-07 3.08822e-06 0
2.4366e-07 -5.7249e-06 0
-1.30997e-07 3.01992e-06 0
1.6945e-07 -5.82384e-06 0
-1.025e-07 3.08822e-06 0
-1.30997e-07 3.01992e-06 0
1.79331e-08 -1.64549e-06 0
1.08585e-07 -1.5742e-06 0
1.79331e-08 -1.64549e-06 0
1.08585e-07 -1.5742e-06 0
-2.98618e-08 8.6918e-07 0
-1.0847e-07 7.5376e-07 0
-2.98618e-08 8.6918e-07 0
-1.0847e-07 7.5376e-07 0
-1.04781e-07 -5.43223e-07 0
-1.58575e-08 -4.94013e-07 0
-1.04781e-07 -5.43223e-07 0
-1.58575e-08 -4.94013e-07 0
-7.47786e-08 1.86074e-07 0
-5.11923e-08 1.64372e-07 0
-7.47786e-08 1.86074e-07 0
-5.11923e-08 1.64372e-07 0
-8.00899e-08 -1.82513e-07 0
-4.7339e-08 -1.7361e-07 0
-8.00899e-08 -1.82513e-07 0
-4.7339e-08 -1.7361e-07 0
-2.20191e-08 1.64922e-08 0
-5.97214e-08 3.98161e-08 0
-2.20191e-08 1.64922e-08 0
-5.97214e-08 3.98161e-08 0
-3.10092e-08 -1.27578e-08 0
-2.37473e-08 -2.45163e-08 0
-3.10092e-08 -1.27578e-08 0
-2.37473e-08 -2.45163e-08 0
7.22782e-08 5.01414e-09 0
-1.20342e-07 1.23636e-08 0
7.22782e-08 5.01414e-09 0
-1.20342e-07 1.23636e-08 0
-3.69356e-08 -2.48623e-08 0
2.08435e-08 2.67527e-08 0
-3.69356e-08 -2.48623e-08 0
2.08435e-08 2.67527e-08 0
-2.19207e-08 -1.06235e-09 0
2.51549e-08 -5.03826e-08 0
-2.19207e-08 -1.06235e-09 0
2.51549e-08 -5.03826e-08 0
3.42451e-08 3.86339e-08 0
-1.00564e-07 3.60155e-08 0
3.42451e-08 3.86339e-08 0
-1.00564e-07 3.60155e-08 0
4.07204e-08 -7.56367e-08 0
-4.04652e-08 -7.25588e-08 0
4.07204e-08 -7.56367e-08 0
-4.04652e-08 -7.25588e-08 0
2.5501e-08 1.4327e-07 0
-5.20133e-08 2.0867e-07 0
2.5501e-08 1.4327e-07 0
-5.20133e-08 2.0867e-07 0
-1.07889e-08 -3.17529e-07 0
9.62049e-08 -3.88669e-07 0
-1.07889e-08 -3.17529e-07 0
9.62049e-08 -3.88669e-07 0
7.36726e-08 6.05893e-07 0
-1.49822e-07 6.97776e-07 0
7.36726e-08 6.05893e-07 0
-1.49822e-07 6.97776e-07 0
2.59315e-07 -1.77735e-06 0
3.25509e-07 -1.38282e-06 0
2.59315e-07 -1.77735e-06 0
3.25509e-07 -1.38282e-06 0
3.11029e-07 2.00954e-06 0
3.60745e-07 1.46175e-06 0
3.11029e-07 2.00954e-06 0
3.60745e-07 1.46175e-06 0
-2.87877e-07 -3.6158e-06 0
-4.68718e-07 -3.72806e-06 0
-2.87877e-07 -3.6158e-06 0
-4.68718e-07 -3.72806e-06 0
-1.53011e-07 9.36819e-06 0
1.31879e-07 9.38401e-06 0
-1.53011e-07 9.36819e-06 0
1.31879e-07 9.38401e-06 0
2.0784e-07 -2.01069e-05 0
-4.9425e-07 -1.93135e-05 0
2.0784e-07 -2.01069e-05 0
-4.9425e-07 -1.93135e-05 0
1.46522e-06 4.02814e-05 0
1.37953e-06 4.04277e-05 0
1.46522e-06 4.02814e-05 0
1.37953e-06 4.04277e-05 0
-4.33126e-07 -8.76227e-05 0
-2.40154e-07 -8.83552e-05 0
-4.33126e-07 -8.76227e-05 0
-2.40154e-07 -8.83552e-05 0