# vtk DataFile Version 3.0
#This file was generated by the deal.II library on 2017/1/17 at 17:24:14
ASCII
DATASET UNSTRUCTURED_GRID

POINTS 7168 double
-0.970149 0.5 0
-0.964976 0.485465 0
-0.940299 0.5 0
-0.945882 0.477585 0
0.12 -0.5 0
0.15 -0.5 0
0.119014 -0.4708 0
0.15 -0.471429 0
0.11755 -0.441479 0
0.119014 -0.4708 0
0.15 -0.442857 0
0.15 -0.471429 0
0.117242 -0.412206 0
0.11755 -0.441479 0
0.15 -0.414286 0
0.15 -0.442857 0
0.118129 -0.383064 0
0.117242 -0.412206 0
0.15 -0.385714 0
0.15 -0.414286 0
0.12021 -0.354337 0
0.118129 -0.383064 0
0.15 -0.357143 0
0.15 -0.385714 0
0.121793 -0.32584 0
0.12021 -0.354337 0
0.15 -0.328571 0
0.15 -0.357143 0
0.122717 -0.296869 0
0.121793 -0.32584 0
0.15 -0.3 0
0.15 -0.328571 0
0.123759 -0.266752 0
0.122717 -0.296869 0
0.153091 -0.267708 0
0.15 -0.3 0
0.18456 -0.26795 0
0.153091 -0.267708 0
0.183333 -0.3 0
0.15 -0.3 0
0.216606 -0.268111 0
0.18456 -0.26795 0
0.216667 -0.3 0
0.183333 -0.3 0
0.24835 -0.26841 0
0.216606 -0.268111 0
0.25 -0.3 0
0.216667 -0.3 0
0.278782 -0.268564 0
0.24835 -0.26841 0
0.279437 -0.298917 0
0.25 -0.3 0
0.279638 -0.328111 0
0.279437 -0.298917 0
0.25 -0.328571 0
0.25 -0.3 0
0.27971 -0.356801 0
0.279638 -0.328111 0
0.25 -0.357143 0
0.25 -0.328571 0
0.279677 -0.385395 0
0.27971 -0.356801 0
0.25 -0.385714 0
0.25 -0.357143 0
0.279641 -0.413938 0
0.279677 -0.385395 0
0.25 -0.414286 0
0.25 -0.385714 0
0.279666 -0.442534 0
0.279641 -0.413938 0
0.25 -0.442857 0
0.25 -0.414286 0
0.279811 -0.471266 0
0.279666 -0.442534 0
0.25 -0.471429 0
0.25 -0.442857 0
0.28 -0.5 0
0.279811 -0.471266 0
0.25 -0.5 0
0.25 -0.471429 0
0.970149 0.5 0
0.970096 0.46978 0
1 0.5 0
1 0.469697 0
0.940299 0.5 0
0.940231 0.46984 0
0.970149 0.5 0
0.970096 0.46978 0
0.910448 0.5 0
0.910371 0.469856 0
0.940299 0.5 0
0.940231 0.46984 0
0.880597 0.5 0
0.880527 0.469909 0
0.910448 0.5 0
0.910371 0.469856 0
0.850746 0.5 0
0.850684 0.469926 0
0.880597 0.5 0
0.880527 0.469909 0
0.820896 0.5 0
0.820842 0.469978 0
0.850746 0.5 0
0.850684 0.469926 0
0.791045 0.5 0
0.791001 0.470016 0
0.820896 0.5 0
0.820842 0.469978 0
0.761194 0.5 0
0.761159 0.470055 0
0.791045 0.5 0
0.791001 0.470016 0
0.731343 0.5 0
0.731316 0.470091 0
0.761194 0.5 0
0.761159 0.470055 0
0.701493 0.5 0
0.701472 0.470118 0
0.731343 0.5 0
0.731316 0.470091 0
0.671642 0.5 0
0.671627 0.470134 0
0.701493 0.5 0
0.701472 0.470118 0
0.641791 0.5 0
0.64178 0.470142 0
0.671642 0.5 0
0.671627 0.470134 0
0.641791 0.5 0
0.61194 0.5 0
0.64178 0.470142 0
0.611934 0.470065 0
0.58209 0.5 0
0.582089 0.470002 0
0.61194 0.5 0
0.611934 0.470065 0
0.552239 0.5 0
0.552248 0.469853 0
0.58209 0.5 0
0.582089 0.470002 0
0.522388 0.5 0
0.522413 0.469718 0
0.552239 0.5 0
0.552248 0.469853 0
0.492537 0.5 0
0.492577 0.469656 0
0.522388 0.5 0
0.522413 0.469718 0
0.462687 0.5 0
0.462743 0.469571 0
0.492537 0.5 0
0.492577 0.469656 0
0.432836 0.5 0
0.432895 0.46963 0
0.462687 0.5 0
0.462743 0.469571 0
0.402985 0.5 0
0.403046 0.469669 0
0.432836 0.5 0
0.432895 0.46963 0
0.373134 0.5 0
0.373191 0.469745 0
0.402985 0.5 0
0.403046 0.469669 0
0.343284 0.5 0
0.343335 0.469723 0
0.373134 0.5 0
0.373191 0.469745 0
0.313433 0.5 0
0.313478 0.469741 0
0.343284 0.5 0
0.343335 0.469723 0
0.283582 0.5 0
0.283622 0.469783 0
0.313433 0.5 0
0.313478 0.469741 0
0.253731 0.5 0
0.253768 0.469742 0
0.283582 0.5 0
0.283622 0.469783 0
0.223881 0.5 0
0.223918 0.469737 0
0.253731 0.5 0
0.253768 0.469742 0
0.19403 0.5 0
0.194064 0.46981 0
0.223881 0.5 0
0.223918 0.469737 0
0.164179 0.5 0
0.16421 0.469881 0
0.19403 0.5 0
0.194064 0.46981 0
0.134328 0.5 0
0.134355 0.46994 0
0.164179 0.5 0
0.16421 0.469881 0
0.104478 0.5 0
0.1045 0.469997 0
0.134328 0.5 0
0.134355 0.46994 0
0.074627 0.5 0
0.074645 0.470051 0
0.104478 0.5 0
0.1045 0.469997 0
0.044776 0.5 0
0.04479 0.470093 0
0.074627 0.5 0
0.074645 0.470051 0
0.014925 0.5 0
0.014935 0.47012 0
0.044776 0.5 0
0.04479 0.470093 0
-0.014925 0.5 0
-0.014918 0.470135 0
0.014925 0.5 0
0.014935 0.47012 0
-0.044776 0.5 0
-0.044771 0.470143 0
-0.014925 0.5 0
-0.014918 0.470135 0
-0.074627 0.5 0
-0.074623 0.470146 0
-0.044776 0.5 0
-0.044771 0.470143 0
-0.104478 0.5 0
-0.104496 0.469979 0
-0.074627 0.5 0
-0.074623 0.470146 0
-0.134328 0.5 0
-0.134359 0.469935 0
-0.104478 0.5 0
-0.104496 0.469979 0
-0.164179 0.5 0
-0.164225 0.469839 0
-0.134328 0.5 0
-0.134359 0.469935 0
-0.164179 0.5 0
-0.19403 0.5 0
-0.164225 0.469839 0
-0.194083 0.469797 0
-0.223881 0.5 0
-0.22394 0.469753 0
-0.19403 0.5 0
-0.194083 0.469797 0
-0.253731 0.5 0
-0.253798 0.469819 0
-0.223881 0.5 0
-0.22394 0.469753 0
-0.283582 0.5 0
-0.283647 0.470019 0
-0.253731 0.5 0
-0.253798 0.469819 0
-0.313433 0.5 0
-0.313491 0.470151 0
-0.283582 0.5 0
-0.283647 0.470019 0
-0.343284 0.5 0
-0.343348 0.470381 0
-0.313433 0.5 0
-0.313491 0.470151 0
-0.343284 0.5 0
-0.373134 0.5 0
-0.343348 0.470381 0
-0.373195 0.470395 0
-0.373134 0.5 0
-0.402985 0.5 0
-0.373195 0.470395 0
-0.403049 0.470404 0
-0.432836 0.5 0
-0.432937 0.470297 0
-0.402985 0.5 0
-0.403049 0.470404 0
-0.462687 0.5 0
-0.462848 0.469995 0
-0.432836 0.5 0
-0.432937 0.470297 0
-0.492537 0.5 0
-0.492807 0.469765 0
-0.462687 0.5 0
-0.462848 0.469995 0
-0.522388 0.5 0
-0.52276 0.46958 0
-0.492537 0.5 0
-0.492807 0.469765 0
-0.552239 0.5 0
-0.55273 0.469652 0
-0.522388 0.5 0
-0.52276 0.46958 0
-0.58209 0.5 0
-0.582662 0.469731 0
-0.552239 0.5 0
-0.55273 0.469652 0
-0.61194 0.5 0
-0.612594 0.469999 0
-0.58209 0.5 0
-0.582662 0.469731 0
-0.641791 0.5 0
-0.642647 0.470419 0
-0.61194 0.5 0
-0.612594 0.469999 0
-0.671642 0.5 0
-0.672638 0.470543 0
-0.641791 0.5 0
-0.642647 0.470419 0
-0.701493 0.5 0
-0.702968 0.4698 0
-0.671642 0.5 0
-0.672638 0.470543 0
-0.850746 0.5 0
-0.850723 0.467038 0
-0.820896 0.5 0
-0.822797 0.47207 0
0.31 -0.5 0
0.309694 -0.471123 0
0.28 -0.5 0
0.279811 -0.471266 0
0.31 -0.5 0
0.34 -0.5 0
0.309694 -0.471123 0
0.339686 -0.471033 0
0.37 -0.5 0
0.369721 -0.471055 0
0.34 -0.5 0
0.339686 -0.471033 0
0.37 -0.5 0
0.4 -0.5 0
0.369721 -0.471055 0
0.399756 -0.470957 0
0.4 -0.5 0
0.43 -0.5 0
0.399756 -0.470957 0
0.429805 -0.470822 0
0.43 -0.5 0
0.46 -0.5 0
0.429805 -0.470822 0
0.459835 -0.470712 0
0.46 -0.5 0
0.49 -0.5 0
0.459835 -0.470712 0
0.489873 -0.470554 0
0.49 -0.5 0
0.52 -0.5 0
0.489873 -0.470554 0
0.519906 -0.470379 0
0.52 -0.5 0
0.55 -0.5 0
0.519906 -0.470379 0
0.54993 -0.470248 0
0.55 -0.5 0
0.58 -0.5 0
0.54993 -0.470248 0
0.579948 -0.470155 0
0.58 -0.5 0
0.61 -0.5 0
0.579948 -0.470155 0
0.609962 -0.470091 0
0.61 -0.5 0
0.64 -0.5 0
0.609962 -0.470091 0
0.639972 -0.47005 0
0.64 -0.5 0
0.67 -0.5 0
0.639972 -0.47005 0
0.66998 -0.470026 0
0.67 -0.5 0
0.7 -0.5 0
0.66998 -0.470026 0
0.699986 -0.470013 0
0.7 -0.5 0
0.73 -0.5 0
0.699986 -0.470013 0
0.72999 -0.470006 0
0.73 -0.5 0
0.76 -0.5 0
0.72999 -0.470006 0
0.759994 -0.470003 0
0.76 -0.5 0
0.79 -0.5 0
0.759994 -0.470003 0
0.78998 -0.469916 0
0.79 -0.5 0
0.82 -0.5 0
0.78998 -0.469916 0
0.819956 -0.469877 0
0.82 -0.5 0
0.85 -0.5 0
0.819956 -0.469877 0
0.849929 -0.469833 0
0.85 -0.5 0
0.88 -0.5 0
0.849929 -0.469833 0
0.879924 -0.469805 0
0.88 -0.5 0
0.91 -0.5 0
0.879924 -0.469805 0
0.909913 -0.469792 0
0.91 -0.5 0
0.94 -0.5 0
0.909913 -0.469792 0
0.939922 -0.469775 0
0.94 -0.5 0
0.97 -0.5 0
0.939922 -0.469775 0
0.969956 -0.46974 0
0.97 -0.5 0
1 -0.5 0
0.969956 -0.46974 0
1 -0.469697 0
-0.744681 0.244681 0
-0.723404 0.223404 0
-0.723868 0.265704 0
-0.702394 0.245107 0
-0.702128 0.202128 0
-0.680976 0.2243 0
-0.723404 0.223404 0
-0.702394 0.245107 0
-0.702128 0.202128 0
-0.680851 0.180851 0
-0.680976 0.2243 0
-0.659597 0.203254 0
-0.680851 0.180851 0
-0.659574 0.159574 0
-0.659597 0.203254 0
-0.638233 0.18203 0
-0.638298 0.138298 0
-0.616915 0.16063 0
-0.659574 0.159574 0
-0.638233 0.18203 0
-0.617021 0.117021 0
-0.595665 0.139192 0
-0.638298 0.138298 0
-0.616915 0.16063 0
-0.617021 0.117021 0
-0.595745 0.095745 0
-0.595665 0.139192 0
-0.574431 0.117764 0
-0.595745 0.095745 0
-0.574468 0.074468 0
-0.574431 0.117764 0
-0.553204 0.096309 0
-0.553191 0.053191 0
-0.53184 0.075023 0
-0.574468 0.074468 0
-0.553204 0.096309 0
-0.553191 0.053191 0
-0.531915 0.031915 0
-0.53184 0.075023 0
-0.510492 0.053733 0
-0.531915 0.031915 0
-0.510638 0.010638 0
-0.510492 0.053733 0
-0.489127 0.032461 0
-0.510638 0.010638 0
-0.489362 -0.010638 0
-0.489127 0.032461 0
-0.467791 0.011178 0
-0.489362 -0.010638 0
-0.468085 -0.031915 0
-0.467791 0.011178 0
-0.446536 -0.010172 0
-0.446809 -0.053191 0
-0.42524 -0.031466 0
-0.468085 -0.031915 0
-0.446536 -0.010172 0
-0.425532 -0.074468 0
-0.404012 -0.052824 0
-0.446809 -0.053191 0
-0.42524 -0.031466 0
-0.425532 -0.074468 0
-0.404255 -0.095745 0
-0.404012 -0.052824 0
-0.382783 -0.074175 0
-0.404255 -0.095745 0
-0.382979 -0.117021 0
-0.382783 -0.074175 0
-0.361545 -0.095511 0
-0.382979 -0.117021 0
-0.361702 -0.138298 0
-0.361545 -0.095511 0
-0.340288 -0.116831 0
-0.361702 -0.138298 0
-0.340426 -0.159574 0
-0.340288 -0.116831 0
-0.319034 -0.138159 0
-0.340426 -0.159574 0
-0.319149 -0.180851 0
-0.319034 -0.138159 0
-0.297766 -0.159484 0
-0.319149 -0.180851 0
-0.297872 -0.202128 0
-0.297766 -0.159484 0
-0.276489 -0.180797 0
-0.297872 -0.202128 0
-0.276596 -0.223404 0
-0.276489 -0.180797 0
-0.255087 -0.202105 0
-0.255319 -0.244681 0
-0.233674 -0.223466 0
-0.276596 -0.223404 0
-0.255087 -0.202105 0
-0.234043 -0.265957 0
-0.212119 -0.244916 0
-0.255319 -0.244681 0
-0.233674 -0.223466 0
-0.234043 -0.265957 0
-0.212766 -0.287234 0
-0.212119 -0.244916 0
-0.190657 -0.266392 0
-0.191489 -0.308511 0
-0.169261 -0.287934 0
-0.212766 -0.287234 0
-0.190657 -0.266392 0
-0.170213 -0.329787 0
-0.147854 -0.309624 0
-0.191489 -0.308511 0
-0.169261 -0.287934 0
-0.170213 -0.329787 0
-0.148936 -0.351064 0
-0.147854 -0.309624 0
-0.126431 -0.331364 0
-0.12766 -0.37234 0
-0.105256 -0.353368 0
-0.148936 -0.351064 0
-0.126431 -0.331364 0
-0.12766 -0.37234 0
-0.106383 -0.393617 0
-0.105256 -0.353368 0
-0.083924 -0.375263 0
-0.106383 -0.393617 0
-0.085106 -0.414894 0
-0.083924 -0.375263 0
-0.062097 -0.396824 0
-0.085106 -0.414894 0
-0.06383 -0.43617 0
-0.062097 -0.396824 0
[...]
POINT_DATA 7168
VECTORS momentum double
0.00112681 -0.000847638 0
0.00176808 -0.00276592 0
-0.00126414 -0.00121218 0
0.00509336 -0.00847514 0
-0.000120374 -0.000645252 0
2.23799e-05 -0.000607968 0
-3.03357e-05 -0.00102324 0
3.86281e-05 -0.00103803 0
-0.000196924 -0.000119493 0
-3.03357e-05 -0.00102324 0
4.55966e-05 -9.91133e-05 0
3.86281e-05 -0.00103803 0
8.44189e-05 -0.000362063 0
-0.000196924 -0.000119493 0
1.72909e-06 -0.00041822 0
4.55966e-05 -9.91133e-05 0
8.07249e-05 8.03538e-05 0
8.44189e-05 -0.000362063 0
-4.8789e-05 0.000209832 0
1.72909e-06 -0.00041822 0
0.000129878 -1.46123e-05 0
8.07249e-05 8.03538e-05 0
7.56494e-05 -0.000249781 0
-4.8789e-05 0.000209832 0
-3.29518e-05 0.000191915 0
0.000129878 -1.46123e-05 0
-0.000206072 0.000682767 0
7.56494e-05 -0.000249781 0
0.000469912 9.35371e-05 0
-3.29518e-05 0.000191915 0
0.000741004 -0.00024794 0
-0.000206072 0.000682767 0
-9.54787e-06 -5.58249e-05 0
0.000469912 9.35371e-05 0
0.000103564 -0.000535758 0
0.000741004 -0.00024794 0
4.62132e-05 -0.0011873 0
0.000103564 -0.000535758 0
0.000762757 -0.000952832 0
0.000741004 -0.00024794 0
-2.10891e-05 -0.00114893 0
4.62132e-05 -0.0011873 0
-0.000792545 -0.000918234 0
0.000762757 -0.000952832 0
-0.000135387 -0.00052555 0
-2.10891e-05 -0.00114893 0
-0.000696652 -0.000235011 0
-0.000792545 -0.000918234 0
-2.23545e-05 -6.13586e-05 0
-0.000135387 -0.00052555 0
-0.000433029 6.85388e-05 0
-0.000696652 -0.000235011 0
7.15562e-05 0.000142423 0
-0.000433029 6.85388e-05 0
0.000183601 0.000659962 0
-0.000696652 -0.000235011 0
-8.12437e-05 -7.2072e-05 0
7.15562e-05 0.000142423 0
-8.99352e-05 -0.000306489 0
0.000183601 0.000659962 0
3.95479e-05 0.000128468 0
-8.12437e-05 -7.2072e-05 0
4.14019e-05 0.000269255 0
-8.99352e-05 -0.000306489 0
-2.42649e-05 -0.000241834 0
3.95479e-05 0.000128468 0
-2.10797e-05 -0.00032053 0
4.14019e-05 0.000269255 0
1.35912e-05 -2.51446e-05 0
-2.42649e-05 -0.000241834 0
1.11563e-05 1.37282e-05 0
-2.10797e-05 -0.00032053 0
-1.06886e-05 -0.000994717 0
1.35912e-05 -2.51446e-05 0
-6.59461e-06 -0.00101857 0
1.11563e-05 1.37282e-05 0
1.84845e-05 -0.000609582 0
-1.06886e-05 -0.000994717 0
5.82912e-06 -0.000587203 0
-6.59461e-06 -0.00101857 0
-4.9329e-06 -0.00112768 0
-3.51423e-06 -0.0015249 0
-5.42857e-06 -0.00112862 0
-1.52947e-06 -0.0015229 0
-3.70023e-06 -0.00112818 0
-3.05279e-06 -0.00152679 0
-4.9329e-06 -0.00112768 0
-3.51423e-06 -0.0015249 0
-3.73963e-06 -0.00112735 0
-5.48585e-07 -0.00152728 0
-3.70023e-06 -0.00112818 0
-3.05279e-06 -0.00152679 0
-3.8689e-06 -0.00112587 0
-5.3307e-07 -0.00152749 0
-3.73963e-06 -0.00112735 0
-5.48585e-07 -0.00152728 0
-4.3611e-06 -0.00112452 0
-1.49683e-07 -0.00152697 0
-3.8689e-06 -0.00112587 0
-5.3307e-07 -0.00152749 0
-4.55583e-06 -0.00112248 0
-1.78314e-07 -0.00152644 0
-4.3611e-06 -0.00112452 0
-1.49683e-07 -0.00152697 0
-4.03192e-06 -0.00112122 0
-7.45107e-08 -0.00152556 0
-4.55583e-06 -0.00112248 0
-1.78314e-07 -0.00152644 0
-4.11824e-06 -0.00111925 0
6.58319e-07 -0.00152527 0
-4.03192e-06 -0.00112122 0
-7.45107e-08 -0.00152556 0
-2.68847e-06 -0.00111767 0
-3.2511e-07 -0.00152484 0
-4.11824e-06 -0.00111925 0
6.58319e-07 -0.00152527 0
-1.89899e-06 -0.00111733 0
9.60553e-07 -0.00152433 0
-2.68847e-06 -0.00111767 0
-3.2511e-07 -0.00152484 0
1.01516e-06 -0.00111542 0
3.61184e-06 -0.00152356 0
-1.89899e-06 -0.00111733 0
9.60553e-07 -0.00152433 0
5.3038e-06 -0.00111504 0
2.50738e-06 -0.00152375 0
1.01516e-06 -0.00111542 0
3.61184e-06 -0.00152356 0
5.3038e-06 -0.00111504 0
7.4157e-06 -0.00111637 0
2.50738e-06 -0.00152375 0
2.59077e-06 -0.00152349 0
1.10646e-05 -0.00111829 0
3.41021e-07 -0.00152478 0
7.4157e-06 -0.00111637 0
2.59077e-06 -0.00152349 0
1.08443e-05 -0.00112413 0
-2.9029e-06 -0.00152414 0
1.10646e-05 -0.00111829 0
3.41021e-07 -0.00152478 0
6.52868e-06 -0.00112878 0
-6.86188e-07 -0.0015215 0
1.08443e-05 -0.00112413 0
-2.9029e-06 -0.00152414 0
7.2732e-06 -0.0011309 0
1.10304e-06 -0.00151978 0
6.52868e-06 -0.00112878 0
-6.86188e-07 -0.0015215 0
5.42102e-06 -0.00113355 0
1.18e-06 -0.00152026 0
7.2732e-06 -0.0011309 0
1.10304e-06 -0.00151978 0
-1.20911e-06 -0.0011342 0
2.32239e-06 -0.0015214 0
5.42102e-06 -0.00113355 0
1.18e-06 -0.00152026 0
-4.49664e-06 -0.00113184 0
2.56844e-06 -0.00151897 0
-1.20911e-06 -0.0011342 0
2.32239e-06 -0.0015214 0
-4.18111e-06 -0.00112942 0
-7.04565e-07 -0.00151892 0
-4.49664e-06 -0.00113184 0
2.56844e-06 -0.00151897 0
-1.28146e-06 -0.00112984 0
-2.36891e-06 -0.00151572 0
-4.18111e-06 -0.00112942 0
-7.04565e-07 -0.00151892 0
-2.2086e-06 -0.00113013 0
-7.01233e-07 -0.00151824 0
-1.28146e-06 -0.00112984 0
-2.36891e-06 -0.00151572 0
-2.37702e-06 -0.00112876 0
-4.64092e-07 -0.00151858 0
-2.2086e-06 -0.00113013 0
-7.01233e-07 -0.00151824 0
1.13567e-06 -0.00112879 0
-1.87488e-07 -0.00151686 0
-2.37702e-06 -0.00112876 0
-4.64092e-07 -0.00151858 0
-1.04513e-06 -0.00112891 0
2.98045e-08 -0.00151886 0
1.13567e-06 -0.00112879 0
-1.87488e-07 -0.00151686 0
-5.70663e-06 -0.00112819 0
-1.07926e-08 -0.00151984 0
-1.04513e-06 -0.00112891 0
2.98045e-08 -0.00151886 0
-7.07903e-06 -0.00112508 0
4.19937e-07 -0.00152021 0
-5.70663e-06 -0.00112819 0
-1.07926e-08 -0.00151984 0
-6.40602e-06 -0.00112207 0
-1.28831e-06 -0.00152157 0
-7.07903e-06 -0.00112508 0
4.19937e-07 -0.00152021 0
-5.87631e-06 -0.0011208 0
-1.8597e-06 -0.00152191 0
-6.40602e-06 -0.00112207 0
-1.28831e-06 -0.00152157 0
-5.26192e-06 -0.00111895 0
-7.72853e-07 -0.00152212 0
-5.87631e-06 -0.0011208 0
-1.8597e-06 -0.00152191 0
-4.57828e-06 -0.00111696 0
-2.27262e-07 -0.00152267 0
-5.26192e-06 -0.00111895 0
-7.72853e-07 -0.00152212 0
-2.62407e-06 -0.00111542 0
-1.09023e-06 -0.0015225 0
-4.57828e-06 -0.00111696 0
-2.27262e-07 -0.00152267 0
-1.89595e-06 -0.00111514 0
6.20918e-07 -0.00152354 0
-2.62407e-06 -0.00111542 0
-1.09023e-06 -0.0015225 0
3.25855e-06 -0.00111342 0
4.35674e-06 -0.00152187 0
-1.89595e-06 -0.00111514 0
6.20918e-07 -0.00152354 0
1.08154e-05 -0.00111496 0
2.63486e-06 -0.00152263 0
3.25855e-06 -0.00111342 0
4.35674e-06 -0.00152187 0
9.83343e-06 -0.0011193 0
1.33645e-06 -0.00151862 0
1.08154e-05 -0.00111496 0
2.63486e-06 -0.00152263 0
8.25971e-06 -0.00112207 0
1.63891e-06 -0.00151738 0
9.83343e-06 -0.0011193 0
1.33645e-06 -0.00151862 0
6.99392e-06 -0.00112544 0
-1.53559e-07 -0.00151466 0
8.25971e-06 -0.00112207 0
1.63891e-06 -0.00151738 0
6.99392e-06 -0.00112544 0
1.90477e-06 -0.00112913 0
-1.53559e-07 -0.00151466 0
-4.30821e-06 -0.00151176 0
-6.06352e-06 -0.00113022 0
-6.03604e-06 -0.0015161 0
1.90477e-06 -0.00112913 0
-4.30821e-06 -0.00151176 0
-1.41646e-05 -0.00112701 0
-6.82149e-07 -0.00152064 0
-6.06352e-06 -0.00113022 0
-6.03604e-06 -0.0015161 0
-1.72912e-05 -0.00111966 0
-7.97778e-07 -0.0015245 0
-1.41646e-05 -0.00112701 0
-6.82149e-07 -0.00152064 0
-1.51191e-05 -0.00111401 0
-2.77012e-06 -0.00152932 0
-1.72912e-05 -0.00111966 0
-7.97778e-07 -0.0015245 0
-9.44555e-06 -0.00110833 0
2.20046e-06 -0.00153724 0
-1.51191e-05 -0.00111401 0
-2.77012e-06 -0.00152932 0
-9.44555e-06 -0.00110833 0
9.77723e-07 -0.0011025 0
2.20046e-06 -0.00153724 0
6.8651e-06 -0.00153619 0
9.77723e-07 -0.0011025 0
1.69348e-05 -0.00110378 0
6.8651e-06 -0.00153619 0
9.57106e-06 -0.00153138 0
2.97121e-05 -0.00111168 0
1.05749e-05 -0.00152652 0
1.69348e-05 -0.00110378 0
9.57106e-06 -0.00153138 0
2.95476e-05 -0.00111934 0
6.30827e-06 -0.00152524 0
2.97121e-05 -0.00111168 0
1.05749e-05 -0.00152652 0
1.72151e-05 -0.00112162 0
5.56972e-06 -0.00153956 0
2.95476e-05 -0.00111934 0
6.30827e-06 -0.00152524 0
1.34375e-05 -0.00112495 0
-2.62978e-05 -0.00154864 0
1.72151e-05 -0.00112162 0
5.56972e-06 -0.00153956 0
-1.10336e-05 -0.00116155 0
2.68104e-06 -0.00152296 0
1.34375e-05 -0.00112495 0
-2.62978e-05 -0.00154864 0
2.2007e-05 -0.00115524 0
-8.26239e-05 -0.00151204 0
-1.10336e-05 -0.00116155 0
2.68104e-06 -0.00152296 0
-0.000141819 -0.00126089 0
6.8447e-05 -0.00140868 0
2.2007e-05 -0.00115524 0
-8.26239e-05 -0.00151204 0
-0.00025129 -0.000950323 0
-0.000475111 -0.00173193 0
-0.000141819 -0.00126089 0
6.8447e-05 -0.00140868 0
-0.000898176 -0.0017789 0
-0.00288401 -0.00247097 0
-0.00025129 -0.000950323 0
-0.000475111 -0.00173193 0
-0.00160235 -0.00116573 0
-0.0033448 -0.0109109 0
-0.000898176 -0.0017789 0
-0.00288401 -0.00247097 0
0.000864975 -0.00286599 0
-0.00296688 -0.0159046 0
-2.42939e-05 -0.00149527 0
-0.000762683 -0.0126414 0
1.52444e-05 -0.000622848 0
-3.78492e-07 -0.000996489 0
1.84845e-05 -0.000609582 0
-1.06886e-05 -0.000994717 0
1.52444e-05 -0.000622848 0
7.36184e-06 -0.00062915 0
-3.78492e-07 -0.000996489 0
4.45709e-06 -0.00099704 0
3.45805e-06 -0.000628259 0
3.36312e-06 -0.000998681 0
7.36184e-06 -0.00062915 0
4.45709e-06 -0.00099704 0
3.45805e-06 -0.000628259 0
6.0071e-06 -0.000630655 0
3.36312e-06 -0.000998681 0
-3.51832e-07 -0.000994246 0
6.0071e-06 -0.000630655 0
8.36805e-06 -0.000634006 0
-3.51832e-07 -0.000994246 0
9.91322e-07 -0.000992905 0
8.36805e-06 -0.000634006 0
8.67617e-06 -0.000636622 0
9.91322e-07 -0.000992905 0
3.66942e-06 -0.000991446 0
8.67617e-06 -0.000636622 0
9.78947e-06 -0.000638187 0
3.66942e-06 -0.000991446 0
1.77718e-06 -0.000993144 0
9.78947e-06 -0.000638187 0
1.00436e-05 -0.000642574 0
1.77718e-06 -0.000993144 0
-1.31822e-06 -0.000994158 0
1.00436e-05 -0.000642574 0
7.95307e-06 -0.000647318 0
-1.31822e-06 -0.000994158 0
-1.22282e-06 -0.000995151 0
7.95307e-06 -0.000647318 0
5.46786e-06 -0.000650629 0
-1.22282e-06 -0.000995151 0
-7.04031e-07 -0.000996389 0
5.46786e-06 -0.000650629 0
3.79215e-06 -0.000652809 0
-7.04031e-07 -0.000996389 0
-5.92539e-07 -0.000997521 0
3.79215e-06 -0.000652809 0
2.32902e-06 -0.000654384 0
-5.92539e-07 -0.000997521 0
-3.35588e-07 -0.00099811 0
2.32902e-06 -0.000654384 0
1.50127e-06 -0.000655117 0
-3.35588e-07 -0.00099811 0
1.84702e-07 -0.000998556 0
1.50127e-06 -0.000655117 0
1.05964e-06 -0.000655446 0
1.84702e-07 -0.000998556 0
5.87565e-07 -0.000998714 0
1.05964e-06 -0.000655446 0
1.7108e-06 -0.000655537 0
5.87565e-07 -0.000998714 0
1.13539e-06 -0.000998667 0
1.7108e-06 -0.000655537 0
3.50183e-06 -0.000655962 0
1.13539e-06 -0.000998667 0
2.18907e-07 -0.00099949 0
3.50183e-06 -0.000655962 0
3.63093e-06 -0.000657851 0
2.18907e-07 -0.00099949 0
-1.1197e-06 -0.000999905 0
3.63093e-06 -0.000657851 0
3.92278e-06 -0.000659641 0
-1.1197e-06 -0.000999905 0
-1.89448e-07 -0.00100104 0
3.92278e-06 -0.000659641 0
4.02204e-06 -0.000661417 0
-1.89448e-07 -0.00100104 0
5.3806e-07 -0.00100226 0
4.02204e-06 -0.000661417 0
2.68567e-06 -0.000662663 0
5.3806e-07 -0.00100226 0
7.2222e-07 -0.00100325 0
2.68567e-06 -0.000662663 0
1.90384e-06 -0.000663114 0
7.2222e-07 -0.00100325 0
5.31549e-07 -0.00100418 0
1.90384e-06 -0.000663114 0
1.53632e-06 -0.000663882 0
5.31549e-07 -0.00100418 0
7.75127e-07 -0.00100375 0
1.53632e-06 -0.000663882 0
1.26498e-06 -0.000664002 0
7.75127e-07 -0.00100375 0
1.2137e-06 -0.00100276 0
1.26498e-06 -0.000664002 0
1.10923e-06 -0.000664092 0
1.2137e-06 -0.00100276 0
8.22077e-07 -0.00100178 0
0.00209737 -0.00308427 0
0.0004792 -0.00103424 0
-0.000112906 -0.00668531 0
8.38809e-05 -0.00320406 0
-0.000347058 -0.000877865 0
-0.000628988 -0.000610271 0
0.0004792 -0.00103424 0
8.38809e-05 -0.00320406 0
-0.000347058 -0.000877865 0
-0.000427855 -0.000474722 0
-0.000628988 -0.000610271 0
-0.000521272 -0.000866009 0
-0.000427855 -0.000474722 0
-0.000483318 -0.000543894 0
-0.000521272 -0.000866009 0
-0.000719486 -0.000633214 0
-0.000466528 -0.000462271 0
-0.000634331 -0.000712407 0
-0.000483318 -0.000543894 0
-0.000719486 -0.000633214 0
-0.00048177 -0.000480474 0
-0.000676873 -0.000630974 0
-0.000466528 -0.000462271 0
-0.000634331 -0.000712407 0
-0.00048177 -0.000480474 0
-0.000471155 -0.000456627 0
-0.000676873 -0.000630974 0
-0.000643025 -0.000652101 0
-0.000471155 -0.000456627 0
-0.000465806 -0.000452434 0
-0.000643025 -0.000652101 0
-0.000654299 -0.000634139 0
-0.00045076 -0.00044686 0
-0.000639383 -0.000629139 0
-0.000465806 -0.000452434 0
-0.000654299 -0.000634139 0
-0.00045076 -0.00044686 0
-0.000444207 -0.00045132 0
-0.000639383 -0.000629139 0
-0.00063104 -0.000620821 0
-0.000444207 -0.00045132 0
-0.000438792 -0.000442502 0
-0.00063104 -0.000620821 0
-0.00062207 -0.000618359 0
-0.000438792 -0.000442502 0
-0.000431774 -0.000441244 0
-0.00062207 -0.000618359 0
-0.000615798 -0.000611904 0
-0.000431774 -0.000441244 0
-0.00042957 -0.000432091 0
-0.000615798 -0.000611904 0
-0.000608642 -0.000607365 0
-0.000422632 -0.000425765 0
-0.000599918 -0.000598953 0
-0.00042957 -0.000432091 0
-0.000608642 -0.000607365 0
-0.000417034 -0.000419854 0
-0.000594503 -0.000593672 0
-0.000422632 -0.000425765 0
-0.000599918 -0.000598953 0
-0.000417034 -0.000419854 0
-0.000412962 -0.000410378 0
-0.000594503 -0.000593672 0
-0.0005895 -0.000585125 0
-0.000412962 -0.000410378 0
-0.000405399 -0.000405749 0
-0.0005895 -0.000585125 0
-0.000583921 -0.000579289 0
-0.000405399 -0.000405749 0
-0.000400261 -0.000399518 0
-0.000583921 -0.000579289 0
-0.000579302 -0.000572316 0
-0.000400261 -0.000399518 0
-0.00039283 -0.000396249 0
-0.000579302 -0.000572316 0
-0.000574715 -0.000568098 0
-0.00039283 -0.000396249 0
-0.000389491 -0.000391185 0
-0.000574715 -0.000568098 0
-0.000566367 -0.000562723 0
-0.000389491 -0.000391185 0
-0.000378967 -0.000393293 0
-0.000566367 -0.000562723 0
-0.000558993 -0.000553815 0
-0.000378967 -0.000393293 0
-0.000377981 -0.000395322 0
-0.000558993 -0.000553815 0
-0.000552384 -0.0005528 0
-0.000366694 -0.000387206 0
-0.000549446 -0.00056534 0
-0.000377981 -0.000395322 0
-0.000552384 -0.0005528 0
-0.000356296 -0.000382488 0
-0.00056531 -0.000568883 0
-0.000366694 -0.000387206 0
-0.000549446 -0.00056534 0
-0.000356296 -0.000382488 0
-0.000359136 -0.000379552 0
-0.00056531 -0.000568883 0
-0.000570843 -0.000560764 0
-0.000364634 -0.00038819 0
-0.000569901 -0.000544913 0
-0.000359136 -0.000379552 0
-0.000570843 -0.000560764 0
-0.000381339 -0.0004078 0
-0.000539446 -0.000523555 0
-0.000364634 -0.00038819 0
-0.000569901 -0.000544913 0
-0.000381339 -0.0004078 0
-0.000398523 -0.000389324 0
-0.000539446 -0.000523555 0
-0.00052346 -0.000530134 0
-0.000384783 -0.000360148 0
-0.000559483 -0.000551526 0
-0.000398523 -0.000389324 0
-0.00052346 -0.000530134 0
-0.000384783 -0.000360148 0
-0.000350356 -0.000381998 0
-0.000559483 -0.000551526 0
-0.00059489 -0.000576847 0
-0.000350356 -0.000381998 0
-0.000323848 -0.000443486 0
-0.00059489 -0.000576847 0
-0.000550265 -0.000612942 0
-0.000323848 -0.000443486 0
-0.000320121 -0.000484738 0
-0.000550265 -0.000612942 0
-0.000518747 -0.000549313 0
-0.000320121 -0.000484738 0
-0.000438374 -0.000362409 0
-0.000518747 -0.000549313 0
-0.000159331 -0.00067695 0
-0.000438374 -0.000362409 0
-0.000255304 -0.000195039 0
-0.000159331 -0.00067695 0
-0.000373104 -0.000298175 0
-0.000255304 -0.000195039 0
-1.04024e-05 -0.000505225 0
-0.000373104 -0.000298175 0
-0.000370851 -0.00102568 0
-1.04024e-05 -0.000505225 0
0.000165987 -0.000412253 0
-0.000370851 -0.00102568 0
9.56463e-05 -0.000802123 0
0.000165987 -0.000412253 0
0.000164913 -0.000631787 0
9.56463e-05 -0.000802123 0
-0.000187632 -0.000786812 0
0.000164913 -0.000631787 0
3.05497e-05 -0.000726706 0
-0.000187632 -0.000786812 0
2.50824e-05 -0.000807872 0
3.05497e-05 -0.000726706 0
-0.000120374 -0.000645252 0
2.50824e-05 -0.000807872 0
-3.03357e-05 -0.00102324 0
1.2137e-06 -0.00100276 0
8.22077e-07 -0.00100178 0
1.00705e-07 -1.35689e-05 0
-4.43697e-07 -1.43456e-05 0
1.00705e-07 -1.35689e-05 0
-4.43697e-07 -1.43456e-05 0
-3.54893e-07 -0.000215505 0
-5.2356e-07 -0.000214969 0
-3.54893e-07 -0.000215505 0
-5.2356e-07 -0.000214969 0
-8.25731e-07 9.99521e-05 0
2.02231e-07 0.000100384 0
-8.25731e-07 9.99521e-05 0
2.02231e-07 0.000100384 0
3.3759e-07 -7.55911e-05 0
-1.91583e-07 -7.58484e-05 0
3.3759e-07 -7.55911e-05 0
-1.91583e-07 -7.58484e-05 0
-4.4235e-07 4.58285e-05 0
1.05635e-07 4.63526e-05 0
-4.4235e-07 4.58285e-05 0
1.05635e-07 4.63526e-05 0
5.84587e-07 -2.84159e-05 0
3.64805e-07 -2.86865e-05 0
-2.71383e-07 1.72088e-05 0
5.84587e-07 -2.84159e-05 0
-2.63239e-07 1.71239e-05 0
3.64805e-07 -2.86865e-05 0
-2.71383e-07 1.72088e-05 0
-2.63239e-07 1.71239e-05 0
5.62075e-08 -1.01862e-05 0
2.37627e-07 -1.01559e-05 0
5.62075e-08 -1.01862e-05 0
2.37627e-07 -1.01559e-05 0
-1.93284e-07 5.87956e-06 0
-3.74658e-07 5.65833e-06 0
-1.93284e-07 5.87956e-06 0
-3.74658e-07 5.65833e-06 0
-2.68028e-07 -3.71445e-06 0
-2.8631e-09 -3.54628e-06 0
-2.68028e-07 -3.71445e-06 0
-2.8631e-09 -3.54628e-06 0
-2.99533e-07 1.75512e-06 0
-1.18033e-07 1.64384e-06 0
-2.99533e-07 1.75512e-06 0
-1.18033e-07 1.64384e-06 0
-3.02779e-07 -1.2987e-06 0
-1.64842e-07 -1.31937e-06 0
-3.02779e-07 -1.2987e-06 0
-1.64842e-07 -1.31937e-06 0
-2.02816e-07 4.34421e-07 0
-2.57725e-07 4.77772e-07 0
-2.02816e-07 4.34421e-07 0
-2.57725e-07 4.77772e-07 0
-1.75589e-07 -2.99056e-07 0
-1.84005e-07 -3.70043e-07 0
-1.75589e-07 -2.99056e-07 0
-1.84005e-07 -3.70043e-07 0
3.09906e-09 1.10556e-07 0
-5.07578e-07 1.15517e-07 0
3.09906e-09 1.10556e-07 0
-5.07578e-07 1.15517e-07 0
-1.21125e-07 -3.66795e-08 0
-1.5845e-07 7.18737e-08 0
-1.21125e-07 -3.66795e-08 0
-1.5845e-07 7.18737e-08 0
5.39409e-08 -1.21251e-07 0
-3.87373e-07 -3.57777e-07 0
5.39409e-08 -1.21251e-07 0
-3.87373e-07 -3.57777e-07 0
1.42167e-07 2.83472e-07 0
-7.74965e-07 2.98605e-07 0
1.42167e-07 2.83472e-07 0
-7.74965e-07 2.98605e-07 0
2.52432e-07 -6.74894e-07 0
-5.17532e-07 -5.35651e-07 0
2.52432e-07 -6.74894e-07 0
-5.17532e-07 -5.35651e-07 0
1.81231e-07 1.12769e-06 0
-3.00663e-07 1.39381e-06 0
1.81231e-07 1.12769e-06 0
-3.00663e-07 1.39381e-06 0
1.88734e-07 -2.2878e-06 0
2.16605e-07 -2.29628e-06 0
1.88734e-07 -2.2878e-06 0
2.16605e-07 -2.29628e-06 0
3.91654e-07 3.64415e-06 0
-1.74685e-07 3.87406e-06 0
3.91654e-07 3.64415e-06 0
-1.74685e-07 3.87406e-06 0
8.5535e-07 -8.76201e-06 0
9.02351e-07 -7.79861e-06 0
8.5535e-07 -8.76201e-06 0
9.02351e-07 -7.79861e-06 0
9.59245e-07 1.20898e-05 0
1.13103e-06 1.05748e-05 0
9.59245e-07 1.20898e-05 0
1.13103e-06 1.05748e-05 0
-8.89952e-07 -2.0796e-05 0
-1.42571e-06 -2.10404e-05 0
-8.89952e-07 -2.0796e-05 0
-1.42571e-06 -2.10404e-05 0
2.00144e-07 4.22156e-05 0
5.542e-07 4.25528e-05 0
2.00144e-07 4.22156e-05 0
5.542e-07 4.25528e-05 0
5.92514e-07 -7.813e-05 0
-1.13953e-06 -7.61096e-05 0
5.92514e-07 -7.813e-05 0
-1.13953e-06 -7.61096e-05 0
4.41531e-06 0.00013086 0
4.19211e-06 0.000131112 0
4.41531e-06 0.00013086 0
4.19211e-06 0.000131112 0
-1.17756e-06 -0.000245389 0
-6.18185e-07 -0.000247222 0
-1.17756e-06 -0.000245389 0
-6.18185e-07 -0.000247222 0
6.53989e-07 0.000246877 0
8.03044e-07 0.000247357 0
6.53989e-07 0.000246877 0
8.03044e-07 0.000247357 0
-3.51423e-06 -0.0015249 0
-1.52947e-06 -0.0015229 0
-0.000110567 -0.360396 0
-0.000145422 -0.360759 0
-0.0010402 -0.361358 0
-0.000616144 -0.361595 0
-0.000112906 -0.00668531 0
8.38809e-05 -0.00320406 0
0.00757135 -0.0193588 0
0.00308654 -0.0019077 0
-0.000628988 -0.000610271 0
0.000500285 -0.000448588 0
8.38809e-05 -0.00320406 0
0.00308654 -0.0019077 0
-0.000628988 -0.000610271 0
-0.000521272 -0.000866009 0
0.000500285 -0.000448588 0
1.92543e-05 0.000139901 0
-0.000521272 -0.000866009 0
-0.000719486 -0.000633214 0
1.92543e-05 0.000139901 0
0.000145261 4.78358e-05 0
-0.000634331 -0.000712407 0
9.98198e-05 9.14449e-05 0
-0.000719486 -0.000633214 0
0.000145261 4.78358e-05 0
-0.000676873 -0.000630974 0
8.65987e-05 6.74131e-05 0
-0.000634331 -0.000712407 0
9.98198e-05 9.14449e-05 0
-0.000676873 -0.000630974 0
-0.000643025 -0.000652101 0
8.65987e-05 6.74131e-05 0
5.53724e-05 7.51044e-05 0
-0.000643025 -0.000652101 0
-0.000654299 -0.000634139 0
5.53724e-05 7.51044e-05 0
5.47181e-05 6.68522e-05 0
-0.000639383 -0.000629139 0
5.77389e-05 6.14508e-05 0
-0.000654299 -0.000634139 0
5.47181e-05 6.68522e-05 0
-0.000639383 -0.000629139 0
-0.00063104 -0.000620821 0
5.77389e-05 6.14508e-05 0
4.97949e-05 5.45425e-05 0
-0.00063104 -0.000620821 0
-0.00062207 -0.000618359 0
4.97949e-05 5.45425e-05 0
5.07333e-05 5.24598e-05 0
-0.00062207 -0.000618359 0
-0.000615798 -0.000611904 0
5.07333e-05 5.24598e-05 0
5.20276e-05 4.76897e-05 0
-0.000615798 -0.000611904 0
-0.000608642 -0.000607365 0
5.20276e-05 4.76897e-05 0
4.91521e-05 4.50318e-05 0